256-Lipid DPPC Bilayer in water
38616
    1DPPC    C1    1   5.861   5.488   5.666
    1DPPC    C2    2   5.873   5.646   5.501
    1DPPC    C3    3   5.735   5.466   5.449
    1DPPC    N4    4   5.779   5.551   5.561
    1DPPC    C5    5   5.672   5.624   5.630
    1DPPC    C6    6   5.583   5.722   5.555
    1DPPC    O7    7   5.638   5.849   5.520
    1DPPC    P8    8   5.515   5.952   5.513
    1DPPC    O9    9   5.600   6.072   5.503
    1DPPC   O10   10   5.442   5.913   5.636
    1DPPC   O11   11   5.432   5.925   5.377
    1DPPC   C12   12   5.458   6.036   5.291
    1DPPC   C13   13   5.414   6.014   5.146
    1DPPC   O14   14   5.279   6.054   5.118
    1DPPC   C15   15   5.261   6.186   5.094
    1DPPC   O16   16   5.348   6.261   5.139
    1DPPC   C17   17   5.125   6.234   5.044
    1DPPC   C18   18   5.129   6.352   4.947
    1DPPC   C19   19   5.014   6.361   4.847
    1DPPC   C20   20   5.016   6.484   4.755
    1DPPC   C21   21   5.131   6.468   4.655
    1DPPC   C22   22   5.126   6.570   4.541
    1DPPC   C23   23   5.236   6.517   4.448
    1DPPC   C24   24   5.228   6.599   4.320
    1DPPC   C25   25   5.310   6.520   4.217
    1DPPC   C26   26   5.294   6.596   4.085
    1DPPC   C27   27   5.353   6.527   3.962
    1DPPC   C28   28   5.320   6.604   3.833
    1DPPC   C29   29   5.378   6.535   3.710
    1DPPC   C30   30   5.328   6.585   3.575
    1DPPC   C31   31   5.355   6.736   3.566
    1DPPC   C32   32   5.461   5.874   5.104
    1DPPC   O33   33   5.555   5.883   4.998
    1DPPC   C34   34   5.644   5.780   4.985
    1DPPC   O35   35   5.644   5.697   5.076
    1DPPC   C36   36   5.735   5.778   4.862
    1DPPC   C37   37   5.717   5.645   4.789
    1DPPC   C38   38   5.804   5.634   4.664
    1DPPC   C39   39   5.948   5.632   4.717
    1DPPC   C40   40   6.054   5.627   4.607
    1DPPC   C41   41   6.047   5.502   4.520
    1DPPC   C42   42   6.100   5.540   4.381
    1DPPC   C43   43   6.085   5.416   4.293
    1DPPC   C44   44   6.140   5.445   4.153
    1DPPC   C45   45   6.117   5.336   4.048
    1DPPC   C46   46   6.158   5.400   3.915
    1DPPC   C47   47   6.070   5.516   3.867
    1DPPC   C48   48   6.134   5.583   3.745
    1DPPC   C49   49   6.043   5.683   3.673
    1DPPC   C50   50   6.018   5.793   3.777
    2DPPC    C1   51   3.525   0.767   1.813
    2DPPC    C2   52   3.681   0.875   1.684
    2DPPC    C3   53   3.476   0.981   1.740
    2DPPC    N4   54   3.586   0.900   1.794
    2DPPC    C5   55   3.635   0.951   1.922
    2DPPC    C6   56   3.699   1.090   1.922
    2DPPC    O7   57   3.720   1.138   2.055
    2DPPC    P8   58   3.814   1.268   2.062
    2DPPC    O9   59   3.750   1.358   1.964
    2DPPC   O10   60   3.957   1.233   2.077
    2DPPC   O11   61   3.763   1.308   2.210
    2DPPC   C12   62   3.833   1.236   2.313
    2DPPC   C13   63   3.815   1.274   2.460
    2DPPC   O14   64   3.920   1.210   2.535
    2DPPC   C15   65   4.044   1.258   2.509
    2DPPC   O16   66   4.059   1.376   2.478
    2DPPC   C17   67   4.158   1.176   2.569
    2DPPC   C18   68   4.125   1.110   2.703
    2DPPC   C19   69   4.226   1.000   2.735
    2DPPC   C20   70   4.204   0.939   2.874
    2DPPC   C21   71   4.326   0.849   2.892
    2DPPC   C22   72   4.302   0.772   3.022
    2DPPC   C23   73   4.257   0.860   3.139
    2DPPC   C24   74   4.233   0.759   3.252
    2DPPC   C25   75   4.205   0.839   3.379
    2DPPC   C26   76   4.102   0.765   3.464
    2DPPC   C27   77   4.047   0.868   3.564
    2DPPC   C28   78   3.966   0.787   3.665
    2DPPC   C29   79   3.959   0.879   3.787
    2DPPC   C30   80   3.879   0.810   3.897
    2DPPC   C31   81   3.735   0.796   3.847
    2DPPC   C32   82   3.671   1.237   2.494
    2DPPC   O33   83   3.646   1.277   2.629
    2DPPC   C34   84   3.519   1.256   2.673
    2DPPC   O35   85   3.425   1.237   2.596
    2DPPC   C36   86   3.490   1.295   2.818
    2DPPC   C37   87   3.358   1.244   2.877
    2DPPC   C38   88   3.348   1.287   3.023
    2DPPC   C39   89   3.476   1.246   3.096
    2DPPC   C40   90   3.469   1.331   3.223
    2DPPC   C41   91   3.467   1.480   3.188
    2DPPC   C42   92   3.503   1.579   3.299
    2DPPC   C43   93   3.460   1.721   3.262
    2DPPC   C44   94   3.308   1.725   3.243
    2DPPC   C45   95   3.259   1.869   3.227
    2DPPC   C46   96   3.123   1.870   3.157
    2DPPC   C47   97   3.088   2.012   3.113
    2DPPC   C48   98   2.962   1.984   3.032
    2DPPC   C49   99   2.837   1.927   3.099
    2DPPC   C50  100   2.735   1.887   2.992
    3DPPC    C1  101   6.493   4.410   5.262
    3DPPC    C2  102   6.517   4.420   5.502
    3DPPC    C3  103   6.587   4.237   5.384
    3DPPC    N4  104   6.582   4.384   5.376
    3DPPC    C5  105   6.703   4.463   5.349
    3DPPC    C6  106   6.704   4.608   5.397
    3DPPC    O7  107   6.616   4.698   5.330
    3DPPC    P8  108   6.629   4.847   5.391
    3DPPC    O9  109   6.678   4.829   5.529
    3DPPC   O10  110   6.512   4.929   5.350
    3DPPC   O11  111   6.763   4.890   5.312
    3DPPC   C12  112   6.719   4.914   5.178
    3DPPC   C13  113   6.831   4.963   5.085
    3DPPC   O14  114   6.777   5.006   4.959
    3DPPC   C15  115   6.842   5.088   4.872
    3DPPC   O16  116   6.926   5.163   4.922
    3DPPC   C17  117   6.778   5.110   4.735
    3DPPC   C18  118   6.864   5.095   4.610
    3DPPC   C19  119   6.799   5.074   4.473
    3DPPC   C20  120   6.879   5.147   4.365
    3DPPC   C21  121   6.850   5.073   4.234
    3DPPC   C22  122   6.917   5.138   4.113
    3DPPC   C23  123   6.882   5.055   3.990
    3DPPC   C24  124   6.929   4.910   4.007
    3DPPC   C25  125   6.876   4.825   3.892
    3DPPC   C26  126   6.942   4.688   3.876
    3DPPC   C27  127   6.885   4.598   3.766
    3DPPC   C28  128   6.930   4.452   3.776
    3DPPC   C29  129   6.890   4.395   3.912
    3DPPC   C30  130   6.939   4.252   3.933
    3DPPC   C31  131   6.862   4.169   3.830
    3DPPC   C32  132   6.926   4.843   5.088
    3DPPC   O33  133   6.869   4.740   5.006
    3DPPC   C34  134   6.941   4.627   4.987
    3DPPC   O35  135   7.055   4.624   5.034
    3DPPC   C36  136   6.904   4.520   4.884
    3DPPC   C37  137   6.803   4.427   4.950
    3DPPC   C38  138   6.764   4.308   4.861
    3DPPC   C39  139   6.718   4.368   4.728
    3DPPC   C40  140   6.703   4.257   4.623
    3DPPC   C41  141   6.699   4.309   4.479
    3DPPC   C42  142   6.828   4.386   4.451
    3DPPC   C43  143   6.850   4.434   4.307
    3DPPC   C44  144   6.905   4.575   4.285
    3DPPC   C45  145   7.056   4.581   4.310
    3DPPC   C46  146   7.110   4.723   4.323
    3DPPC   C47  147   7.251   4.730   4.381
    3DPPC   C48  148   7.254   4.685   4.527
    3DPPC   C49  149   7.215   4.800   4.621
    3DPPC   C50  150   7.218   4.758   4.768
    4DPPC    C1  151   8.584   4.002   1.799
    4DPPC    C2  152   8.492   4.130   1.655
    4DPPC    C3  153   8.399   3.904   1.659
    4DPPC    N4  154   8.451   4.016   1.739
    4DPPC    C5  155   8.355   4.060   1.842
    4DPPC    C6  156   8.217   4.095   1.786
    4DPPC    O7  157   8.196   4.200   1.691
    4DPPC    P8  158   8.044   4.195   1.637
    4DPPC    O9  159   7.994   4.056   1.648
    4DPPC   O10  160   8.037   4.276   1.514
    4DPPC   O11  161   7.958   4.271   1.749
    4DPPC   C12  162   8.021   4.399   1.766
    4DPPC   C13  163   7.935   4.513   1.711
    4DPPC   O14  164   7.992   4.642   1.741
    4DPPC   C15  165   7.923   4.752   1.702
    4DPPC   O16  166   7.838   4.739   1.613
    4DPPC   C17  167   7.979   4.885   1.750
    4DPPC   C18  168   7.896   4.940   1.866
    4DPPC   C19  169   7.871   4.842   1.981
    4DPPC   C20  170   7.998   4.818   2.063
    4DPPC   C21  171   7.953   4.743   2.189
    4DPPC   C22  172   7.874   4.853   2.261
    4DPPC   C23  173   7.817   4.794   2.390
    4DPPC   C24  174   7.751   4.905   2.472
    4DPPC   C25  175   7.673   4.848   2.590
    4DPPC   C26  176   7.550   4.776   2.533
    4DPPC   C27  177   7.464   4.710   2.641
    4DPPC   C28  178   7.394   4.812   2.731
    4DPPC   C29  179   7.327   4.724   2.837
    4DPPC   C30  180   7.228   4.821   2.901
    4DPPC   C31  181   7.109   4.735   2.943
    4DPPC   C32  182   7.796   4.481   1.768
    4DPPC   O33  183   7.782   4.503   1.908
    4DPPC   C34  184   7.671   4.446   1.961
    4DPPC   O35  185   7.619   4.346   1.911
    4DPPC   C36  186   7.630   4.493   2.100
    4DPPC   C37  187   7.577   4.372   2.178
    4DPPC   C38  188   7.593   4.375   2.330
    4DPPC   C39  189   7.548   4.235   2.372
    4DPPC   C40  190   7.558   4.211   2.523
    4DPPC   C41  191   7.478   4.297   2.622
    4DPPC   C42  192   7.498   4.250   2.766
    4DPPC   C43  193   7.400   4.332   2.850
    4DPPC   C44  194   7.406   4.286   2.995
    4DPPC   C45  195   7.374   4.137   3.010
    4DPPC   C46  196   7.357   4.099   3.157
    4DPPC   C47  197   7.467   4.141   3.255
    4DPPC   C48  198   7.467   4.080   3.395
    4DPPC   C49  199   7.326   4.087   3.454
    4DPPC   C50  200   7.331   4.110   3.605
    5DPPC    C1  201   8.717   4.684   5.659
    5DPPC    C2  202   8.894   4.839   5.673
    5DPPC    C3  203   8.875   4.670   5.831
    5DPPC    N4  204   8.861   4.697   5.687
    5DPPC    C5  205   8.946   4.612   5.602
    5DPPC    C6  206   8.893   4.472   5.572
    5DPPC    O7  207   8.877   4.384   5.683
    5DPPC    P8  208   8.803   4.249   5.637
    5DPPC    O9  209   8.765   4.145   5.735
    5DPPC   O10  210   8.830   4.215   5.495
    5DPPC   O11  211   8.667   4.335   5.633
    5DPPC   C12  212   8.582   4.245   5.560
    5DPPC   C13  213   8.451   4.302   5.508
    5DPPC   O14  214   8.371   4.195   5.455
    5DPPC   C15  215   8.242   4.212   5.415
    5DPPC   O16  216   8.191   4.323   5.400
    5DPPC   C17  217   8.170   4.087   5.364
    5DPPC   C18  218   8.204   4.066   5.216
    5DPPC   C19  219   8.131   3.942   5.163
    5DPPC   C20  220   8.168   3.917   5.017
    5DPPC   C21  221   8.315   3.874   5.021
    5DPPC   C22  222   8.365   3.861   4.877
    5DPPC   C23  223   8.356   3.999   4.812
    5DPPC   C24  224   8.351   3.987   4.659
    5DPPC   C25  225   8.495   3.957   4.615
    5DPPC   C26  226   8.481   3.964   4.463
    5DPPC   C27  227   8.608   3.919   4.391
    5DPPC   C28  228   8.576   3.917   4.241
    5DPPC   C29  229   8.690   3.848   4.166
    5DPPC   C30  230   8.651   3.825   4.020
    5DPPC   C31  231   8.736   3.719   3.948
    5DPPC   C32  232   8.501   4.416   5.418
    5DPPC   O33  233   8.565   4.368   5.300
    5DPPC   C34  234   8.648   4.454   5.236
    5DPPC   O35  235   8.696   4.544   5.305
    5DPPC   C36  236   8.709   4.413   5.102
    5DPPC   C37  237   8.858   4.432   5.076
    5DPPC   C38  238   8.897   4.399   4.931
    5DPPC   C39  239   9.049   4.394   4.914
    5DPPC   C40  240   9.101   4.330   4.786
    5DPPC   C41  241   9.072   4.180   4.779
    5DPPC   C42  242   9.175   4.115   4.688
    5DPPC   C43  243   9.179   4.178   4.548
    5DPPC   C44  244   9.073   4.118   4.455
    5DPPC   C45  245   9.073   4.212   4.334
    5DPPC   C46  246   8.950   4.177   4.251
    5DPPC   C47  247   8.966   4.240   4.112
    5DPPC   C48  248   8.961   4.125   4.010
    5DPPC   C49  249   8.944   4.186   3.871
    5DPPC   C50  250   8.940   4.087   3.754
    6DPPC    C1  251   6.251   0.553   5.584
    6DPPC    C2  252   6.255   0.736   5.444
    6DPPC    C3  253   6.446   0.603   5.450
    6DPPC    N4  254   6.299   0.597   5.452
    6DPPC    C5  255   6.257   0.518   5.336
    6DPPC    C6  256   6.223   0.371   5.361
    6DPPC    O7  257   6.342   0.302   5.399
    6DPPC    P8  258   6.303   0.147   5.422
    6DPPC    O9  259   6.229   0.091   5.307
    6DPPC   O10  260   6.236   0.160   5.554
    6DPPC   O11  261   6.445   0.074   5.440
    6DPPC   C12  262   6.474   0.005   5.318
    6DPPC   C13  263   6.614  -0.057   5.320
    6DPPC   O14  264   6.707   0.007   5.232
    6DPPC   C15  265   6.839   0.011   5.263
    6DPPC   O16  266   6.885  -0.027   5.371
    6DPPC   C17  267   6.916   0.109   5.173
    6DPPC   C18  268   7.068   0.092   5.176
    6DPPC   C19  269   7.132   0.178   5.068
    6DPPC   C20  270   7.283   0.187   5.091
    6DPPC   C21  271   7.361   0.262   4.983
    6DPPC   C22  272   7.470   0.349   5.046
    6DPPC   C23  273   7.519   0.450   4.942
    6DPPC   C24  274   7.567   0.387   4.811
    6DPPC   C25  275   7.602   0.507   4.723
    6DPPC   C26  276   7.648   0.470   4.581
    6DPPC   C27  277   7.704   0.589   4.502
    6DPPC   C28  278   7.839   0.631   4.559
    6DPPC   C29  279   7.910   0.748   4.491
    6DPPC   C30  280   8.038   0.770   4.572
    6DPPC   C31  281   8.008   0.836   4.707
    6DPPC   C32  282   6.588  -0.208   5.309
    6DPPC   O33  283   6.513  -0.229   5.189
    6DPPC   C34  284   6.497  -0.359   5.151
    6DPPC   O35  285   6.538  -0.446   5.227
    6DPPC   C36  286   6.413  -0.393   5.028
    6DPPC   C37  287   6.453  -0.340   4.890
    6DPPC   C38  288   6.353  -0.402   4.792
    6DPPC   C39  289   6.379  -0.372   4.645
    6DPPC   C40  290   6.263  -0.405   4.551
    6DPPC   C41  291   6.307  -0.457   4.414
    6DPPC   C42  292   6.395  -0.582   4.408
    6DPPC   C43  293   6.524  -0.559   4.330
    6DPPC   C44  294   6.553  -0.671   4.230
    6DPPC   C45  295   6.654  -0.636   4.121
    6DPPC   C46  296   6.684  -0.771   4.056
    6DPPC   C47  297   6.816  -0.766   3.978
    6DPPC   C48  298   6.815  -0.671   3.858
    6DPPC   C49  299   6.961  -0.651   3.816
    6DPPC   C50  300   6.956  -0.547   3.704
    7DPPC    C1  301   2.983   1.500   5.612
    7DPPC    C2  302   2.791   1.458   5.742
    7DPPC    C3  303   2.805   1.442   5.490
    7DPPC    N4  304   2.865   1.414   5.622
    7DPPC    C5  305   2.910   1.275   5.631
    7DPPC    C6  306   2.806   1.169   5.670
    7DPPC    O7  307   2.726   1.149   5.553
    7DPPC    P8  308   2.603   1.055   5.596
    7DPPC    O9  309   2.513   1.160   5.650
    7DPPC   O10  310   2.668   0.954   5.682
    7DPPC   O11  311   2.581   1.007   5.444
    7DPPC   C12  312   2.531   1.108   5.357
    7DPPC   C13  313   2.541   1.056   5.213
    7DPPC   O14  314   2.432   0.977   5.166
    7DPPC   C15  315   2.310   1.031   5.138
    7DPPC   O16  316   2.268   1.134   5.189
    7DPPC   C17  317   2.210   0.935   5.072
    7DPPC   C18  318   2.258   0.930   4.927
    7DPPC   C19  319   2.199   0.815   4.845
    7DPPC   C20  320   2.050   0.848   4.838
    7DPPC   C21  321   1.976   0.760   4.737
    7DPPC   C22  322   2.044   0.761   4.600
    7DPPC   C23  323   2.054   0.894   4.525
    7DPPC   C24  324   2.124   0.886   4.389
    7DPPC   C25  325   2.141   1.025   4.326
    7DPPC   C26  326   2.003   1.076   4.283
    7DPPC   C27  327   2.013   1.196   4.188
    7DPPC   C28  328   2.092   1.166   4.061
    7DPPC   C29  329   2.018   1.060   3.978
    7DPPC   C30  330   2.099   1.054   3.849
    7DPPC   C31  331   2.068   1.173   3.759
    7DPPC   C32  332   2.678   0.987   5.206
    7DPPC   O33  333   2.774   1.092   5.221
    7DPPC   C34  334   2.902   1.047   5.216
    7DPPC   O35  335   2.940   0.930   5.227
    7DPPC   C36  336   3.011   1.155   5.214
    7DPPC   C37  337   2.995   1.247   5.093
    7DPPC   C38  338   3.096   1.361   5.096
    7DPPC   C39  339   3.079   1.446   4.969
    7DPPC   C40  340   2.937   1.501   4.975
    7DPPC   C41  341   2.903   1.556   4.836
    7DPPC   C42  342   2.916   1.448   4.729
    7DPPC   C43  343   2.885   1.473   4.581
    7DPPC   C44  344   2.893   1.349   4.491
    7DPPC   C45  345   2.854   1.392   4.349
    7DPPC   C46  346   2.877   1.280   4.248
    7DPPC   C47  347   2.834   1.327   4.109
    7DPPC   C48  348   2.858   1.230   3.992
    7DPPC   C49  349   2.822   1.284   3.854
    7DPPC   C50  350   2.826   1.175   3.746
    8DPPC    C1  351   8.534   5.777   4.724
    8DPPC    C2  352   8.723   5.714   4.860
    8DPPC    C3  353   8.575   5.894   4.917
    8DPPC    N4  354   8.583   5.758   4.861
    8DPPC    C5  355   8.492   5.672   4.938
    8DPPC    C6  356   8.501   5.626   5.083
    8DPPC    O7  357   8.620   5.553   5.117
    8DPPC    P8  358   8.605   5.498   5.267
    8DPPC    O9  359   8.546   5.606   5.351
    8DPPC   O10  360   8.726   5.423   5.309
    8DPPC   O11  361   8.483   5.396   5.248
    8DPPC   C12  362   8.520   5.309   5.141
    8DPPC   C13  363   8.428   5.194   5.100
    8DPPC   O14  364   8.489   5.095   5.016
    8DPPC   C15  365   8.533   4.978   5.068
    8DPPC   O16  366   8.555   4.959   5.188
    8DPPC   C17  367   8.564   4.877   4.958
    8DPPC   C18  368   8.444   4.826   4.877
    8DPPC   C19  369   8.367   4.933   4.799
    8DPPC   C20  370   8.292   4.865   4.684
    8DPPC   C21  371   8.146   4.842   4.722
    8DPPC   C22  372   8.074   4.815   4.590
    8DPPC   C23  373   8.113   4.922   4.488
    8DPPC   C24  374   8.041   4.906   4.355
    8DPPC   C25  375   8.077   5.029   4.271
    8DPPC   C26  376   8.025   5.024   4.128
    8DPPC   C27  377   8.074   5.146   4.050
    8DPPC   C28  378   8.225   5.139   4.029
    8DPPC   C29  379   8.263   5.025   3.934
    8DPPC   C30  380   8.402   5.029   3.870
    8DPPC   C31  381   8.455   4.891   3.834
    8DPPC   C32  382   8.302   5.253   5.036
    8DPPC   O33  383   8.307   5.367   4.949
    8DPPC   C34  384   8.185   5.407   4.906
    8DPPC   O35  385   8.077   5.377   4.956
    8DPPC   C36  386   8.193   5.496   4.782
    8DPPC   C37  387   8.263   5.437   4.659
    8DPPC   C38  388   8.295   5.531   4.543
    8DPPC   C39  389   8.193   5.494   4.435
    8DPPC   C40  390   8.244   5.558   4.306
    8DPPC   C41  391   8.147   5.526   4.191
    8DPPC   C42  392   8.214   5.585   4.066
    8DPPC   C43  393   8.130   5.567   3.940
    8DPPC   C44  394   8.198   5.632   3.819
    8DPPC   C45  395   8.117   5.583   3.700
    8DPPC   C46  396   8.067   5.439   3.713
    8DPPC   C47  397   8.023   5.376   3.580
    8DPPC   C48  398   7.950   5.246   3.613
    8DPPC   C49  399   7.923   5.165   3.486
    8DPPC   C50  400   7.895   5.018   3.516
    9DPPC    C1  401   3.202   2.903   6.151
    9DPPC    C2  402   3.066   2.742   6.279
    9DPPC    C3  403   2.995   2.965   6.242
    9DPPC    N4  404   3.067   2.852   6.182
    9DPPC    C5  405   3.002   2.799   6.061
    9DPPC    C6  406   2.943   2.903   5.967
    9DPPC    O7  407   3.033   2.960   5.872
    9DPPC    P8  408   2.947   3.007   5.744
    9DPPC    O9  409   3.018   3.127   5.698
    9DPPC   O10  410   2.808   3.014   5.795
    9DPPC   O11  411   2.949   2.877   5.649
    9DPPC   C12  412   3.072   2.902   5.580
    9DPPC   C13  413   3.134   2.767   5.540
    9DPPC   O14  414   3.260   2.785   5.476
    9DPPC   C15  415   3.345   2.679   5.471
    9DPPC   O16  416   3.356   2.608   5.571
    9DPPC   C17  417   3.458   2.693   5.369
    9DPPC   C18  418   3.422   2.653   5.226
    9DPPC   C19  419   3.545   2.644   5.136
    9DPPC   C20  420   3.508   2.641   4.988
    9DPPC   C21  421   3.630   2.615   4.899
    9DPPC   C22  422   3.604   2.586   4.751
    9DPPC   C23  423   3.737   2.577   4.676
    9DPPC   C24  424   3.729   2.500   4.544
    9DPPC   C25  425   3.867   2.487   4.480
    9DPPC   C26  426   3.847   2.369   4.385
    9DPPC   C27  427   3.964   2.360   4.287
    9DPPC   C28  428   3.950   2.244   4.188
    9DPPC   C29  429   4.079   2.247   4.105
    9DPPC   C30  430   4.206   2.209   4.181
    9DPPC   C31  431   4.310   2.190   4.070
    9DPPC   C32  432   3.025   2.706   5.452
    9DPPC   O33  433   2.999   2.782   5.333
    9DPPC   C34  434   2.903   2.738   5.248
    9DPPC   O35  435   2.817   2.651   5.267
    9DPPC   C36  436   2.914   2.816   5.117
    9DPPC   C37  437   2.897   2.720   4.999
    9DPPC   C38  438   2.904   2.800   4.869
    9DPPC   C39  439   2.799   2.911   4.877
    9DPPC   C40  440   2.802   2.994   4.749
    9DPPC   C41  441   2.682   3.088   4.750
    9DPPC   C42  442   2.669   3.177   4.626
    9DPPC   C43  443   2.558   3.281   4.642
    9DPPC   C44  444   2.539   3.374   4.522
    9DPPC   C45  445   2.440   3.327   4.415
    9DPPC   C46  446   2.297   3.306   4.466
    9DPPC   C47  447   2.216   3.246   4.351
    9DPPC   C48  448   2.273   3.110   4.311
    9DPPC   C49  449   2.161   3.005   4.310
    9DPPC   C50  450   2.210   2.867   4.268
   10DPPC    C1  451   8.413   6.181   5.526
   10DPPC    C2  452   8.522   6.374   5.469
   10DPPC    C3  453   8.520   6.203   5.312
   10DPPC    N4  454   8.435   6.271   5.411
   10DPPC    C5  455   8.315   6.339   5.360
   10DPPC    C6  456   8.206   6.255   5.292
   10DPPC    O7  457   8.095   6.334   5.248
   10DPPC    P8  458   8.001   6.223   5.179
   10DPPC    O9  459   7.909   6.313   5.105
   10DPPC   O10  460   7.961   6.110   5.266
   10DPPC   O11  461   8.109   6.165   5.075
   10DPPC   C12  462   8.104   6.249   4.959
   10DPPC   C13  463   8.232   6.232   4.877
   10DPPC   O14  464   8.261   6.351   4.802
   10DPPC   C15  465   8.383   6.370   4.745
   10DPPC   O16  466   8.479   6.311   4.793
   10DPPC   C17  467   8.388   6.459   4.621
   10DPPC   C18  468   8.398   6.369   4.498
   10DPPC   C19  469   8.524   6.284   4.484
   10DPPC   C20  470   8.494   6.191   4.366
   10DPPC   C21  471   8.442   6.057   4.419
   10DPPC   C22  472   8.440   5.968   4.294
   10DPPC   C23  473   8.581   5.964   4.234
   10DPPC   C24  474   8.574   5.910   4.091
   10DPPC   C25  475   8.709   5.924   4.023
   10DPPC   C26  476   8.711   5.843   3.893
   10DPPC   C27  477   8.848   5.844   3.824
   10DPPC   C28  478   8.953   5.787   3.919
   10DPPC   C29  479   9.094   5.812   3.866
   10DPPC   C30  480   9.146   5.955   3.884
   10DPPC   C31  481   9.292   5.965   3.839
   10DPPC   C32  482   8.233   6.095   4.809
   10DPPC   O33  483   8.114   6.074   4.731
   10DPPC   C34  484   8.114   5.963   4.653
   10DPPC   O35  485   8.216   5.897   4.635
   10DPPC   C36  486   8.009   5.970   4.542
   10DPPC   C37  487   8.001   5.860   4.436
   10DPPC   C38  488   7.885   5.893   4.342
   10DPPC   C39  489   7.887   5.793   4.226
   10DPPC   C40  490   7.807   5.864   4.115
   10DPPC   C41  491   7.812   5.778   3.989
   10DPPC   C42  492   7.714   5.858   3.904
   10DPPC   C43  493   7.703   5.796   3.764
   10DPPC   C44  494   7.759   5.885   3.654
   10DPPC   C45  495   7.739   5.813   3.521
   10DPPC   C46  496   7.786   5.667   3.526
   10DPPC   C47  497   7.767   5.605   3.388
   10DPPC   C48  498   7.863   5.654   3.280
   10DPPC   C49  499   7.822   5.599   3.143
   10DPPC   C50  500   7.933   5.610   3.038
   11DPPC    C1  501   6.458   7.581   5.613
   11DPPC    C2  502   6.540   7.658   5.819
   11DPPC    C3  503   6.578   7.425   5.757
   11DPPC    N4  504   6.568   7.564   5.710
   11DPPC    C5  505   6.684   7.590   5.624
   11DPPC    C6  506   6.768   7.717   5.642
   11DPPC    O7  507   6.697   7.820   5.573
   11DPPC    P8  508   6.754   7.960   5.629
   11DPPC    O9  509   6.804   7.936   5.766
   11DPPC   O10  510   6.649   8.064   5.615
   11DPPC   O11  511   6.868   7.971   5.517
   11DPPC   C12  512   6.809   8.023   5.397
   11DPPC   C13  513   6.912   8.027   5.284
   11DPPC   O14  514   6.889   8.126   5.184
   11DPPC   C15  515   7.001   8.165   5.117
   11DPPC   O16  516   7.109   8.166   5.177
   11DPPC   C17  517   6.971   8.264   5.005
   11DPPC   C18  518   6.844   8.229   4.927
   11DPPC   C19  519   6.827   8.318   4.803
   11DPPC   C20  520   6.832   8.461   4.856
   11DPPC   C21  521   6.866   8.552   4.738
   11DPPC   C22  522   6.830   8.700   4.758
   11DPPC   C23  523   6.848   8.774   4.626
   11DPPC   C24  524   6.808   8.922   4.636
   11DPPC   C25  525   6.794   8.993   4.501
   11DPPC   C26  526   6.698   9.112   4.499
   11DPPC   C27  527   6.561   9.045   4.485
   11DPPC   C28  528   6.525   8.961   4.362
   11DPPC   C29  529   6.381   8.909   4.367
   11DPPC   C30  530   6.357   8.821   4.244
   11DPPC   C31  531   6.211   8.776   4.238
   11DPPC   C32  532   6.938   7.878   5.261
   11DPPC   O33  533   6.815   7.822   5.215
   11DPPC   C34  534   6.827   7.694   5.172
   11DPPC   O35  535   6.919   7.622   5.210
   11DPPC   C36  536   6.716   7.649   5.076
   11DPPC   C37  537   6.721   7.740   4.952
   11DPPC   C38  538   6.603   7.722   4.858
   11DPPC   C39  539   6.626   7.822   4.744
   11DPPC   C40  540   6.771   7.855   4.705
   11DPPC   C41  541   6.763   7.958   4.593
   11DPPC   C42  542   6.904   8.004   4.554
   11DPPC   C43  543   6.946   7.907   4.443
   11DPPC   C44  544   7.090   7.953   4.416
   11DPPC   C45  545   7.088   8.098   4.368
   11DPPC   C46  546   7.013   8.102   4.235
   11DPPC   C47  547   7.025   8.248   4.189
   11DPPC   C48  548   7.170   8.275   4.148
   11DPPC   C49  549   7.173   8.426   4.127
   11DPPC   C50  550   7.314   8.486   4.120
   12DPPC    C1  551   9.341   1.756   5.118
   12DPPC    C2  552   9.556   1.831   5.121
   12DPPC    C3  553   9.450   1.786   5.327
   12DPPC    N4  554   9.468   1.736   5.190
   12DPPC    C5  555   9.517   1.598   5.170
   12DPPC    C6  556   9.453   1.474   5.231
   12DPPC    O7  557   9.476   1.367   5.138
   12DPPC    P8  558   9.423   1.234   5.212
   12DPPC    O9  559   9.429   1.241   5.360
   12DPPC   O10  560   9.476   1.118   5.138
   12DPPC   O11  561   9.266   1.262   5.185
   12DPPC   C12  562   9.229   1.193   5.065
   12DPPC   C13  563   9.080   1.209   5.034
   12DPPC   O14  564   9.030   1.129   4.926
   12DPPC   C15  565   9.001   0.998   4.949
   12DPPC   O16  566   8.996   0.955   5.064
   12DPPC   C17  567   8.937   0.929   4.828
   12DPPC   C18  568   8.894   1.006   4.704
   12DPPC   C19  569   8.787   1.113   4.727
   12DPPC   C20  570   8.766   1.180   4.591
   12DPPC   C21  571   8.665   1.295   4.594
   12DPPC   C22  572   8.643   1.373   4.464
   12DPPC   C23  573   8.580   1.284   4.356
   12DPPC   C24  574   8.525   1.370   4.242
   12DPPC   C25  575   8.415   1.465   4.292
   12DPPC   C26  576   8.385   1.557   4.173
   12DPPC   C27  577   8.297   1.510   4.058
   12DPPC   C28  578   8.153   1.468   4.087
   12DPPC   C29  579   8.074   1.404   3.973
   12DPPC   C30  580   7.933   1.369   4.021
   12DPPC   C31  581   7.944   1.267   4.135
   12DPPC   C32  582   9.051   1.356   5.006
   12DPPC   O33  583   9.127   1.391   4.890
   12DPPC   C34  584   9.109   1.517   4.841
   12DPPC   O35  585   9.057   1.608   4.905
   12DPPC   C36  586   9.200   1.556   4.724
   12DPPC   C37  587   9.147   1.505   4.589
   12DPPC   C38  588   9.029   1.585   4.533
   12DPPC   C39  589   9.024   1.554   4.384
   12DPPC   C40  590   8.908   1.603   4.296
   12DPPC   C41  591   8.919   1.585   4.144
   12DPPC   C42  592   8.823   1.673   4.064
   12DPPC   C43  593   8.815   1.618   3.922
   12DPPC   C44  594   8.704   1.693   3.847
   12DPPC   C45  595   8.740   1.836   3.808
   12DPPC   C46  596   8.627   1.917   3.745
   12DPPC   C47  597   8.500   1.930   3.830
   12DPPC   C48  598   8.420   2.055   3.794
   12DPPC   C49  599   8.286   2.039   3.866
   12DPPC   C50  600   8.213   1.912   3.820
   13DPPC    C1  601   1.648   1.571   5.165
   13DPPC    C2  602   1.780   1.431   5.320
   13DPPC    C3  603   1.617   1.550   5.411
   13DPPC    N4  604   1.647   1.484   5.283
   13DPPC    C5  605   1.568   1.361   5.270
   13DPPC    C6  606   1.418   1.377   5.294
   13DPPC    O7  607   1.323   1.287   5.237
   13DPPC    P8  608   1.175   1.344   5.266
   13DPPC    O9  609   1.166   1.367   5.412
   13DPPC   O10  610   1.085   1.246   5.201
   13DPPC   O11  611   1.178   1.491   5.201
   13DPPC   C12  612   1.084   1.498   5.094
   13DPPC   C13  613   1.083   1.637   5.031
   13DPPC   O14  614   0.996   1.657   4.919
   13DPPC   C15  615   0.862   1.656   4.941
   13DPPC   O16  616   0.818   1.642   5.055
   13DPPC   C17  617   0.771   1.656   4.817
   13DPPC   C18  618   0.753   1.516   4.760
   13DPPC   C19  619   0.660   1.534   4.640
   13DPPC   C20  620   0.610   1.401   4.584
   13DPPC   C21  621   0.500   1.422   4.480
   13DPPC   C22  622   0.357   1.435   4.533
   13DPPC   C23  623   0.253   1.440   4.421
   13DPPC   C24  624   0.114   1.409   4.478
   13DPPC   C25  625   0.020   1.435   4.360
   13DPPC   C26  626   0.038   1.575   4.301
   13DPPC   C27  627  -0.054   1.573   4.178
   13DPPC   C28  628  -0.041   1.697   4.091
   13DPPC   C29  629  -0.175   1.720   4.020
   13DPPC   C30  630  -0.147   1.819   3.907
   13DPPC   C31  631  -0.102   1.956   3.957
   13DPPC   C32  632   1.231   1.655   4.995
   13DPPC   O33  633   1.289   1.547   4.922
   13DPPC   C34  634   1.401   1.582   4.853
   13DPPC   O35  635   1.476   1.669   4.895
   13DPPC   C36  636   1.439   1.487   4.738
   13DPPC   C37  637   1.365   1.527   4.610
   13DPPC   C38  638   1.234   1.449   4.597
   13DPPC   C39  639   1.159   1.481   4.468
   13DPPC   C40  640   1.027   1.403   4.460
   13DPPC   C41  641   0.948   1.441   4.335
   13DPPC   C42  642   0.828   1.346   4.330
   13DPPC   C43  643   0.794   1.334   4.182
   13DPPC   C44  644   0.671   1.244   4.170
   13DPPC   C45  645   0.698   1.105   4.228
   13DPPC   C46  646   0.775   1.015   4.131
   13DPPC   C47  647   0.793   0.880   4.202
   13DPPC   C48  648   0.848   0.775   4.106
   13DPPC   C49  649   0.854   0.630   4.156
   13DPPC   C50  650   0.930   0.617   4.288
   14DPPC    C1  651   8.520   3.350   5.670
   14DPPC    C2  652   8.483   3.518   5.839
   14DPPC    C3  653   8.696   3.445   5.782
   14DPPC    N4  654   8.565   3.479   5.724
   14DPPC    C5  655   8.566   3.594   5.632
   14DPPC    C6  656   8.637   3.581   5.498
   14DPPC    O7  657   8.775   3.545   5.512
   14DPPC    P8  658   8.819   3.452   5.388
   14DPPC    O9  659   8.715   3.346   5.388
   14DPPC   O10  660   8.963   3.419   5.389
   14DPPC   O11  661   8.804   3.574   5.284
   14DPPC   C12  662   8.732   3.526   5.169
   14DPPC   C13  663   8.606   3.610   5.148
   14DPPC   O14  664   8.522   3.550   5.048
   14DPPC   C15  665   8.423   3.469   5.093
   14DPPC   O16  666   8.400   3.461   5.214
   14DPPC   C17  667   8.348   3.392   4.985
   14DPPC   C18  668   8.439   3.286   4.923
   14DPPC   C19  669   8.388   3.219   4.795
   14DPPC   C20  670   8.384   3.315   4.676
   14DPPC   C21  671   8.332   3.261   4.543
   14DPPC   C22  672   8.308   3.372   4.441
   14DPPC   C23  673   8.436   3.452   4.415
   14DPPC   C24  674   8.411   3.561   4.310
   14DPPC   C25  675   8.357   3.494   4.184
   14DPPC   C26  676   8.364   3.599   4.073
   14DPPC   C27  677   8.334   3.546   3.933
   14DPPC   C28  678   8.320   3.651   3.821
   14DPPC   C29  679   8.219   3.758   3.861
   14DPPC   C30  680   8.190   3.829   3.729
   14DPPC   C31  681   8.325   3.879   3.677
   14DPPC   C32  682   8.660   3.742   5.094
   14DPPC   O33  683   8.772   3.737   5.005
   14DPPC   C34  684   8.810   3.861   4.964
   14DPPC   O35  685   8.761   3.960   5.018
   14DPPC   C36  686   8.931   3.860   4.871
   14DPPC   C37  687   8.937   3.744   4.771
   14DPPC   C38  688   8.841   3.780   4.658
   14DPPC   C39  689   8.881   3.699   4.535
   14DPPC   C40  690   8.859   3.548   4.548
   14DPPC   C41  691   8.928   3.478   4.430
   14DPPC   C42  692   8.876   3.335   4.409
   14DPPC   C43  693   8.925   3.272   4.279
   14DPPC   C44  694   8.835   3.163   4.220
   14DPPC   C45  695   8.905   3.034   4.178
   14DPPC   C46  696   8.809   2.957   4.087
   14DPPC   C47  697   8.880   2.825   4.057
   14DPPC   C48  698   8.924   2.818   3.911
   14DPPC   C49  699   9.004   2.690   3.881
   14DPPC   C50  700   9.031   2.659   3.734
   15DPPC    C1  701   5.316   8.107   5.102
   15DPPC    C2  702   5.489   8.220   4.976
   15DPPC    C3  703   5.260   8.300   5.020
   15DPPC    N4  704   5.380   8.236   5.074
   15DPPC    C5  705   5.408   8.296   5.205
   15DPPC    C6  706   5.487   8.211   5.303
   15DPPC    O7  707   5.626   8.201   5.273
   15DPPC    P8  708   5.691   8.067   5.333
   15DPPC    O9  709   5.600   7.961   5.285
   15DPPC   O10  710   5.692   8.110   5.475
   15DPPC   O11  711   5.831   8.080   5.254
   15DPPC   C12  712   5.785   8.066   5.120
   15DPPC   C13  713   5.895   8.122   5.029
   15DPPC   O14  714   5.858   8.139   4.891
   15DPPC   C15  715   5.942   8.203   4.805
   15DPPC   O16  716   6.027   8.275   4.856
   15DPPC   C17  717   5.881   8.231   4.667
   15DPPC   C18  718   5.883   8.380   4.633
   15DPPC   C19  719   5.810   8.461   4.741
   15DPPC   C20  720   5.814   8.610   4.705
   15DPPC   C21  721   5.960   8.654   4.689
   15DPPC   C22  722   5.976   8.801   4.649
   15DPPC   C23  723   5.909   8.822   4.513
   15DPPC   C24  724   5.942   8.966   4.474
   15DPPC   C25  725   5.873   8.998   4.341
   15DPPC   C26  726   5.721   8.999   4.355
   15DPPC   C27  727   5.672   9.041   4.216
   15DPPC   C28  728   5.523   9.074   4.221
   15DPPC   C29  729   5.489   9.153   4.094
   15DPPC   C30  730   5.343   9.192   4.074
   15DPPC   C31  731   5.300   9.277   4.193
   15DPPC   C32  732   6.019   8.036   5.052
   15DPPC   O33  733   6.026   7.916   4.975
   15DPPC   C34  734   6.130   7.831   4.998
   15DPPC   O35  735   6.207   7.855   5.091
   15DPPC   C36  736   6.131   7.706   4.911
   15DPPC   C37  737   6.095   7.577   4.986
   15DPPC   C38  738   6.079   7.455   4.896
   15DPPC   C39  739   5.995   7.492   4.773
   15DPPC   C40  740   5.945   7.374   4.690
   15DPPC   C41  741   6.053   7.271   4.658
   15DPPC   C42  742   5.974   7.160   4.589
   15DPPC   C43  743   6.055   7.078   4.489
   15DPPC   C44  744   5.959   6.981   4.420
   15DPPC   C45  745   6.043   6.885   4.335
   15DPPC   C46  746   6.084   6.962   4.210
   15DPPC   C47  747   5.973   7.023   4.124
   15DPPC   C48  748   6.028   7.093   4.000
   15DPPC   C49  749   5.919   7.158   3.915
   15DPPC   C50  750   5.860   7.274   3.994
   16DPPC    C1  751   9.271   0.832   5.171
   16DPPC    C2  752   9.217   0.835   5.411
   16DPPC    C3  753   9.096   0.692   5.248
   16DPPC    N4  754   9.222   0.756   5.287
   16DPPC    C5  755   9.313   0.642   5.303
   16DPPC    C6  756   9.294   0.550   5.425
   16DPPC    O7  757   9.355   0.421   5.423
   16DPPC    P8  758   9.254   0.314   5.488
   16DPPC    O9  759   9.196   0.396   5.597
   16DPPC   O10  760   9.315   0.183   5.518
   16DPPC   O11  761   9.164   0.291   5.357
   16DPPC   C12  762   9.245   0.223   5.261
   16DPPC   C13  763   9.211   0.263   5.117
   16DPPC   O14  764   9.273   0.384   5.072
   16DPPC   C15  765   9.397   0.372   5.016
   16DPPC   O16  766   9.472   0.285   5.058
   16DPPC   C17  767   9.458   0.483   4.930
   16DPPC   C18  768   9.379   0.613   4.915
   16DPPC   C19  769   9.415   0.685   4.784
   16DPPC   C20  770   9.332   0.625   4.671
   16DPPC   C21  771   9.185   0.642   4.711
   16DPPC   C22  772   9.083   0.584   4.613
   16DPPC   C23  773   9.055   0.670   4.489
   16DPPC   C24  774   8.950   0.594   4.408
   16DPPC   C25  775   8.873   0.652   4.289
   16DPPC   C26  776   8.811   0.541   4.204
   16DPPC   C27  777   8.751   0.608   4.079
   16DPPC   C28  778   8.622   0.530   4.054
   16DPPC   C29  779   8.540   0.559   3.928
   16DPPC   C30  780   8.626   0.507   3.812
   16DPPC   C31  781   8.571   0.533   3.671
   16DPPC   C32  782   9.058   0.270   5.114
   16DPPC   O33  783   8.999   0.140   5.117
   16DPPC   C34  784   8.866   0.133   5.090
   16DPPC   O35  785   8.793   0.208   5.155
   16DPPC   C36  786   8.819  -0.009   5.056
   16DPPC   C37  787   8.768   0.007   4.913
   16DPPC   C38  788   8.793  -0.125   4.840
   16DPPC   C39  789   8.773  -0.118   4.688
   16DPPC   C40  790   8.838  -0.236   4.615
   16DPPC   C41  791   8.819  -0.231   4.463
   16DPPC   C42  792   8.675  -0.264   4.422
   16DPPC   C43  793   8.678  -0.294   4.272
   16DPPC   C44  794   8.549  -0.375   4.257
   16DPPC   C45  795   8.509  -0.401   4.111
   16DPPC   C46  796   8.368  -0.456   4.133
   16DPPC   C47  797   8.290  -0.501   4.009
   16DPPC   C48  798   8.160  -0.549   4.075
   16DPPC   C49  799   8.065  -0.623   3.981
   16DPPC   C50  800   7.946  -0.685   4.054
   17DPPC    C1  801   1.621   0.537   5.456
   17DPPC    C2  802   1.680   0.540   5.233
   17DPPC    C3  803   1.544   0.373   5.306
   17DPPC    N4  804   1.565   0.517   5.321
   17DPPC    C5  805   1.446   0.596   5.287
   17DPPC    C6  806   1.474   0.746   5.276
   17DPPC    O7  807   1.356   0.826   5.273
   17DPPC    P8  808   1.375   0.986   5.269
   17DPPC    O9  809   1.520   1.001   5.291
   17DPPC   O10  810   1.271   1.037   5.361
   17DPPC   O11  811   1.338   0.999   5.113
   17DPPC   C12  812   1.459   1.056   5.062
   17DPPC   C13  813   1.434   1.095   4.916
   17DPPC   O14  814   1.541   1.165   4.851
   17DPPC   C15  815   1.628   1.084   4.785
   17DPPC   O16  816   1.592   0.970   4.757
   17DPPC   C17  817   1.757   1.146   4.729
   17DPPC   C18  818   1.779   1.280   4.800
   17DPPC   C19  819   1.865   1.373   4.714
   17DPPC   C20  820   1.983   1.295   4.656
   17DPPC   C21  821   2.063   1.396   4.574
   17DPPC   C22  822   2.196   1.331   4.536
   17DPPC   C23  823   2.283   1.439   4.472
   17DPPC   C24  824   2.417   1.382   4.425
   17DPPC   C25  825   2.388   1.284   4.311
   17DPPC   C26  826   2.502   1.204   4.248
   17DPPC   C27  827   2.445   1.128   4.128
   17DPPC   C28  828   2.545   1.019   4.089
   17DPPC   C29  829   2.490   0.933   3.975
   17DPPC   C30  830   2.487   1.004   3.839
   17DPPC   C31  831   2.455   0.903   3.729
   17DPPC   C32  832   1.306   1.179   4.914
   17DPPC   O33  833   1.221   1.176   4.798
   17DPPC   C34  834   1.152   1.067   4.756
   17DPPC   O35  835   1.177   0.956   4.803
   17DPPC   C36  836   1.092   1.073   4.616
   17DPPC   C37  837   1.182   1.005   4.513
   17DPPC   C38  838   1.094   0.937   4.409
   17DPPC   C39  839   1.171   0.892   4.284
   17DPPC   C40  840   1.204   1.019   4.206
   17DPPC   C41  841   1.262   0.982   4.069
   17DPPC   C42  842   1.339   1.100   4.009
   17DPPC   C43  843   1.404   1.089   3.871
   17DPPC   C44  844   1.473   1.218   3.826
   17DPPC   C45  845   1.524   1.204   3.682
   17DPPC   C46  846   1.571   1.340   3.628
   17DPPC   C47  847   1.697   1.385   3.701
   17DPPC   C48  848   1.749   1.524   3.663
   17DPPC   C49  849   1.869   1.581   3.739
   17DPPC   C50  850   1.882   1.731   3.710
   18DPPC    C1  851   1.943   7.142   5.583
   18DPPC    C2  852   2.013   6.941   5.658
   18DPPC    C3  853   1.800   6.954   5.542
   18DPPC    N4  854   1.940   7.000   5.545
   18DPPC    C5  855   2.006   6.995   5.414
   18DPPC    C6  856   2.035   6.852   5.368
   18DPPC    O7  857   2.105   6.849   5.244
   18DPPC    P8  858   2.104   6.700   5.182
   18DPPC    O9  859   1.966   6.657   5.213
   18DPPC   O10  860   2.218   6.619   5.230
   18DPPC   O11  861   2.115   6.724   5.023
   18DPPC   C12  862   2.158   6.606   4.956
   18DPPC   C13  863   2.181   6.617   4.805
   18DPPC   O14  864   2.184   6.493   4.733
   18DPPC   C15  865   2.067   6.431   4.703
   18DPPC   O16  866   1.964   6.433   4.770
   18DPPC   C17  867   2.076   6.309   4.612
   18DPPC   C18  868   1.954   6.306   4.519
   18DPPC   C19  869   1.997   6.245   4.385
   18DPPC   C20  870   1.874   6.227   4.296
   18DPPC   C21  871   1.903   6.141   4.172
   18DPPC   C22  872   1.772   6.130   4.095
   18DPPC   C23  873   1.793   6.037   3.975
   18DPPC   C24  874   1.664   6.037   3.893
   18DPPC   C25  875   1.532   6.007   3.966
   18DPPC   C26  876   1.514   5.864   4.017
   18DPPC   C27  877   1.391   5.873   4.108
   18DPPC   C28  878   1.265   5.910   4.030
   18DPPC   C29  879   1.217   5.806   3.929
   18DPPC   C30  880   1.087   5.846   3.860
   18DPPC   C31  881   1.056   5.726   3.769
   18DPPC   C32  882   2.298   6.714   4.789
   18DPPC   O33  883   2.330   6.744   4.652
   18DPPC   C34  884   2.460   6.778   4.631
   18DPPC   O35  885   2.537   6.782   4.726
   18DPPC   C36  886   2.484   6.808   4.482
   18DPPC   C37  887   2.537   6.684   4.409
   18DPPC   C38  888   2.559   6.725   4.263
   18DPPC   C39  889   2.639   6.627   4.176
   18DPPC   C40  890   2.783   6.604   4.220
   18DPPC   C41  891   2.849   6.510   4.119
   18DPPC   C42  892   2.934   6.400   4.182
   18DPPC   C43  893   3.001   6.320   4.070
   18DPPC   C44  894   3.048   6.183   4.118
   18DPPC   C45  895   3.162   6.204   4.217
   18DPPC   C46  896   3.208   6.090   4.308
   18DPPC   C47  897   3.315   6.138   4.406
   18DPPC   C48  898   3.254   6.226   4.516
   18DPPC   C49  899   3.370   6.265   4.608
   18DPPC   C50  900   3.330   6.345   4.732
   19DPPC    C1  901   2.670   5.687   5.718
   19DPPC    C2  902   2.457   5.739   5.660
   19DPPC    C3  903   2.628   5.747   5.489
   19DPPC    N4  904   2.576   5.674   5.606
   19DPPC    C5  905   2.537   5.537   5.569
   19DPPC    C6  906   2.642   5.433   5.531
   19DPPC    O7  907   2.715   5.455   5.410
   19DPPC    P8  908   2.845   5.360   5.408
   19DPPC    O9  909   2.884   5.356   5.551
   19DPPC   O10  910   2.926   5.421   5.300
   19DPPC   O11  911   2.778   5.233   5.336
   19DPPC   C12  912   2.816   5.216   5.199
   19DPPC   C13  913   2.734   5.100   5.142
   19DPPC   O14  914   2.809   5.019   5.051
   19DPPC   C15  915   2.774   4.887   5.052
   19DPPC   O16  916   2.698   4.833   5.132
   19DPPC   C17  917   2.848   4.802   4.948
   19DPPC   C18  918   2.981   4.740   4.992
   19DPPC   C19  919   3.042   4.672   4.870
   19DPPC   C20  920   2.961   4.546   4.841
   19DPPC   C21  921   3.025   4.469   4.725
   19DPPC   C22  922   2.943   4.344   4.691
   19DPPC   C23  923   3.010   4.287   4.566
   19DPPC   C24  924   3.153   4.235   4.580
   19DPPC   C25  925   3.212   4.195   4.445
   19DPPC   C26  926   3.181   4.304   4.342
   19DPPC   C27  927   3.244   4.260   4.209
   19DPPC   C28  928   3.192   4.349   4.097
   19DPPC   C29  929   3.260   4.315   3.964
   19DPPC   C30  930   3.182   4.364   3.843
   19DPPC   C31  931   3.177   4.516   3.856
   19DPPC   C32  932   2.594   5.152   5.107
   19DPPC   O33  933   2.600   5.251   5.005
   19DPPC   C34  934   2.490   5.281   4.930
   19DPPC   O35  935   2.384   5.223   4.953
   19DPPC   C36  936   2.500   5.385   4.818
   19DPPC   C37  937   2.392   5.352   4.715
   19DPPC   C38  938   2.426   5.398   4.573
   19DPPC   C39  939   2.319   5.394   4.464
   19DPPC   C40  940   2.357   5.478   4.342
   19DPPC   C41  941   2.259   5.501   4.227
   19DPPC   C42  942   2.314   5.603   4.127
   19DPPC   C43  943   2.460   5.563   4.103
   19DPPC   C44  944   2.523   5.653   3.997
   19DPPC   C45  945   2.667   5.602   3.983
   19DPPC   C46  946   2.727   5.662   3.856
   19DPPC   C47  947   2.878   5.636   3.845
   19DPPC   C48  948   2.947   5.690   3.970
   19DPPC   C49  949   3.100   5.695   3.954
   19DPPC   C50  950   3.175   5.739   4.080
   20DPPC    C1  951   6.820   5.430   5.141
   20DPPC    C2  952   6.637   5.388   5.000
   20DPPC    C3  953   6.622   5.299   5.209
   20DPPC    N4  954   6.674   5.417   5.139
   20DPPC    C5  955   6.595   5.532   5.188
   20DPPC    C6  956   6.666   5.652   5.249
   20DPPC    O7  957   6.742   5.736   5.161
   20DPPC    P8  958   6.826   5.845   5.242
   20DPPC    O9  959   6.904   5.748   5.322
   20DPPC   O10  960   6.733   5.944   5.301
   20DPPC   O11  961   6.924   5.924   5.141
   20DPPC   C12  962   7.021   5.827   5.102
   20DPPC   C13  963   7.149   5.875   5.032
   20DPPC   O14  964   7.137   5.961   4.918
   20DPPC   C15  965   7.138   6.097   4.906
   20DPPC   O16  966   7.178   6.161   5.002
   20DPPC   C17  967   7.114   6.162   4.769
   20DPPC   C18  968   7.189   6.291   4.733
   20DPPC   C19  969   7.134   6.332   4.596
   20DPPC   C20  970   6.983   6.355   4.609
   20DPPC   C21  971   6.932   6.399   4.472
   20DPPC   C22  972   7.007   6.522   4.420
   20DPPC   C23  973   6.997   6.540   4.268
   20DPPC   C24  974   7.083   6.650   4.206
   20DPPC   C25  975   7.090   6.624   4.055
   20DPPC   C26  976   7.171   6.719   3.966
   20DPPC   C27  977   7.318   6.707   4.008
   20DPPC   C28  978   7.407   6.799   3.926
   20DPPC   C29  979   7.556   6.764   3.927
   20DPPC   C30  980   7.645   6.849   3.836
   20DPPC   C31  981   7.785   6.787   3.836
   20DPPC   C32  982   7.235   5.751   5.010
   20DPPC   O33  983   7.160   5.640   4.962
   20DPPC   C34  984   7.218   5.517   4.962
   20DPPC   O35  985   7.318   5.486   5.027
   20DPPC   C36  986   7.162   5.429   4.850
   20DPPC   C37  987   7.277   5.359   4.778
   20DPPC   C38  988   7.222   5.299   4.648
   20DPPC   C39  989   7.323   5.222   4.562
   20DPPC   C40  990   7.279   5.203   4.417
   20DPPC   C41  991   7.383   5.141   4.323
   20DPPC   C42  992   7.303   5.131   4.193
   20DPPC   C43  993   7.394   5.075   4.083
   20DPPC   C44  994   7.312   5.018   3.967
   20DPPC   C45  995   7.401   4.945   3.867
   20DPPC   C46  996   7.314   4.897   3.751
   20DPPC   C47  997   7.244   5.009   3.674
   20DPPC   C48  998   7.148   4.948   3.572
   20DPPC   C49  999   7.055   5.044   3.498
   20DPPC   C50 1000   7.136   5.132   3.402
   21DPPC    C1 1001   3.275   2.187   6.284
   21DPPC    C2 1002   3.440   2.136   6.117
   21DPPC    C3 1003   3.485   2.081   6.337
   21DPPC    N4 1004   3.375   2.089   6.240
   21DPPC    C5 1005   3.325   1.951   6.230
   21DPPC    C6 1006   3.188   1.925   6.165
   21DPPC    O7 1007   3.184   1.938   6.023
   21DPPC    P8 1008   3.037   1.974   5.966
   21DPPC    O9 1009   2.968   2.065   6.059
   21DPPC   O10 1010   2.996   1.839   5.922
   21DPPC   O11 1011   3.084   2.047   5.830
   21DPPC   C12 1012   3.093   1.943   5.733
   21DPPC   C13 1013   3.091   2.001   5.591
   21DPPC   O14 1014   3.079   1.907   5.483
   21DPPC   C15 1015   2.953   1.871   5.450
   21DPPC   O16 1016   2.863   1.863   5.535
   21DPPC   C17 1017   2.948   1.805   5.312
   21DPPC   C18 1018   3.044   1.882   5.220
   21DPPC   C19 1019   3.013   1.849   5.074
   21DPPC   C20 1020   3.085   1.950   4.985
   21DPPC   C21 1021   3.023   1.930   4.847
   21DPPC   C22 1022   3.081   2.029   4.745
   21DPPC   C23 1023   3.027   2.003   4.604
   21DPPC   C24 1024   3.111   2.065   4.493
   21DPPC   C25 1025   3.024   2.070   4.367
   21DPPC   C26 1026   3.099   2.111   4.240
   21DPPC   C27 1027   3.018   2.099   4.111
   21DPPC   C28 1028   3.107   2.133   3.992
   21DPPC   C29 1029   3.039   2.118   3.856
   21DPPC   C30 1030   3.150   2.081   3.758
   21DPPC   C31 1031   3.116   2.089   3.609
   21DPPC   C32 1032   3.219   2.084   5.586
   21DPPC   O33 1033   3.248   2.167   5.473
   21DPPC   C34 1034   3.180   2.283   5.451
   21DPPC   O35 1035   3.084   2.318   5.520
   21DPPC   C36 1036   3.220   2.359   5.324
   21DPPC   C37 1037   3.138   2.324   5.200
   21DPPC   C38 1038   3.185   2.411   5.084
   21DPPC   C39 1039   3.102   2.374   4.960
   21DPPC   C40 1040   3.133   2.457   4.836
   21DPPC   C41 1041   3.047   2.416   4.716
   21DPPC   C42 1042   3.100   2.474   4.585
   21DPPC   C43 1043   3.252   2.471   4.566
   21DPPC   C44 1044   3.306   2.556   4.451
   21DPPC   C45 1045   3.259   2.503   4.315
   21DPPC   C46 1046   3.289   2.595   4.196
   21DPPC   C47 1047   3.246   2.535   4.063
   21DPPC   C48 1048   3.300   2.622   3.949
   21DPPC   C49 1049   3.229   2.571   3.824
   21DPPC   C50 1050   3.237   2.669   3.707
   22DPPC    C1 1051   1.696   1.982   5.667
   22DPPC    C2 1052   1.880   2.076   5.547
   22DPPC    C3 1053   1.915   1.971   5.766
   22DPPC    N4 1054   1.839   1.969   5.639
   22DPPC    C5 1055   1.855   1.843   5.566
   22DPPC    C6 1056   1.982   1.811   5.486
   22DPPC    O7 1057   1.970   1.692   5.408
   22DPPC    P8 1058   2.117   1.656   5.352
   22DPPC    O9 1059   2.106   1.532   5.272
   22DPPC   O10 1060   2.211   1.668   5.465
   22DPPC   O11 1061   2.121   1.787   5.258
   22DPPC   C12 1062   2.067   1.765   5.127
   22DPPC   C13 1063   2.049   1.900   5.059
   22DPPC   O14 1064   1.989   1.890   4.928
   22DPPC   C15 1065   1.855   1.873   4.921
   22DPPC   O16 1066   1.787   1.859   5.023
   22DPPC   C17 1067   1.795   1.877   4.780
   22DPPC   C18 1068   1.856   1.772   4.688
   22DPPC   C19 1069   1.791   1.776   4.550
   22DPPC   C20 1070   1.833   1.663   4.456
   22DPPC   C21 1071   1.730   1.645   4.344
   22DPPC   C22 1072   1.751   1.516   4.263
   22DPPC   C23 1073   1.622   1.485   4.187
   22DPPC   C24 1074   1.577   1.594   4.089
   22DPPC   C25 1075   1.460   1.522   4.021
   22DPPC   C26 1076   1.410   1.622   3.917
   22DPPC   C27 1077   1.276   1.576   3.859
   22DPPC   C28 1078   1.174   1.546   3.968
   22DPPC   C29 1079   1.047   1.487   3.906
   22DPPC   C30 1080   1.072   1.356   3.831
   22DPPC   C31 1081   0.951   1.293   3.762
   22DPPC   C32 1082   2.181   1.978   5.065
   22DPPC   O33 1083   2.297   1.904   5.029
   22DPPC   C34 1084   2.408   1.981   5.019
   22DPPC   O35 1085   2.391   2.103   5.024
   22DPPC   C36 1086   2.529   1.927   4.943
   22DPPC   C37 1087   2.499   1.812   4.847
   22DPPC   C38 1088   2.602   1.825   4.735
   22DPPC   C39 1089   2.578   1.729   4.618
   22DPPC   C40 1090   2.660   1.772   4.497
   22DPPC   C41 1091   2.632   1.692   4.369
   22DPPC   C42 1092   2.717   1.732   4.249
   22DPPC   C43 1093   2.680   1.660   4.119
   22DPPC   C44 1094   2.779   1.716   4.017
   22DPPC   C45 1095   2.755   1.664   3.875
   22DPPC   C46 1096   2.814   1.748   3.761
   22DPPC   C47 1097   2.776   1.688   3.625
   22DPPC   C48 1098   2.849   1.559   3.586
   22DPPC   C49 1099   2.824   1.504   3.445
   22DPPC   C50 1100   2.860   1.607   3.337
   23DPPC    C1 1101   1.454   7.284   5.149
   23DPPC    C2 1102   1.549   7.086   5.211
   23DPPC    C3 1103   1.400   7.070   5.038
   23DPPC    N4 1104   1.504   7.158   5.091
   23DPPC    C5 1105   1.616   7.170   4.997
   23DPPC    C6 1106   1.612   7.245   4.863
   23DPPC    O7 1107   1.535   7.198   4.752
   23DPPC    P8 1108   1.471   7.320   4.668
   23DPPC    O9 1109   1.516   7.448   4.729
   23DPPC   O10 1110   1.331   7.286   4.639
   23DPPC   O11 1111   1.561   7.294   4.538
   23DPPC   C12 1112   1.515   7.175   4.473
   23DPPC   C13 1113   1.543   7.165   4.323
   23DPPC   O14 1114   1.683   7.168   4.295
   23DPPC   C15 1115   1.728   7.058   4.228
   23DPPC   O16 1116   1.663   6.954   4.232
   23DPPC   C17 1117   1.873   7.082   4.183
   23DPPC   C18 1118   1.889   7.176   4.064
   23DPPC   C19 1119   2.027   7.238   4.047
   23DPPC   C20 1120   2.033   7.354   3.948
   23DPPC   C21 1121   2.015   7.487   4.022
   23DPPC   C22 1122   2.002   7.585   3.906
   23DPPC   C23 1123   1.976   7.729   3.951
   23DPPC   C24 1124   1.953   7.827   3.836
   23DPPC   C25 1125   1.926   7.962   3.902
   23DPPC   C26 1126   1.933   8.077   3.800
   23DPPC   C27 1127   1.888   8.217   3.842
   23DPPC   C28 1128   1.737   8.213   3.863
   23DPPC   C29 1129   1.684   8.197   3.721
   23DPPC   C30 1130   1.533   8.173   3.732
   23DPPC   C31 1131   1.472   8.165   3.591
   23DPPC   C32 1132   1.471   7.290   4.271
   23DPPC   O33 1133   1.501   7.315   4.134
   23DPPC   C34 1134   1.441   7.418   4.069
   23DPPC   O35 1135   1.362   7.487   4.132
   23DPPC   C36 1136   1.493   7.444   3.927
   23DPPC   C37 1137   1.607   7.546   3.924
   23DPPC   C38 1138   1.661   7.567   3.782
   23DPPC   C39 1139   1.718   7.434   3.733
   23DPPC   C40 1140   1.748   7.451   3.584
   23DPPC   C41 1141   1.801   7.325   3.515
   23DPPC   C42 1142   1.685   7.228   3.490
   23DPPC   C43 1143   1.722   7.080   3.499
   23DPPC   C44 1144   1.610   6.996   3.438
   23DPPC   C45 1145   1.583   7.053   3.298
   23DPPC   C46 1146   1.481   6.960   3.233
   23DPPC   C47 1147   1.451   6.998   3.087
   23DPPC   C48 1148   1.362   6.908   3.002
   23DPPC   C49 1149   1.229   6.868   3.066
   23DPPC   C50 1150   1.113   6.915   2.979
   24DPPC    C1 1151   3.259   5.336   5.271
   24DPPC    C2 1152   3.419   5.373   5.440
   24DPPC    C3 1153   3.262   5.539   5.393
   24DPPC    N4 1154   3.277   5.394   5.405
   24DPPC    C5 1155   3.194   5.333   5.510
   24DPPC    C6 1156   3.209   5.183   5.535
   24DPPC    O7 1157   3.111   5.106   5.464
   24DPPC    P8 1158   3.147   4.952   5.493
   24DPPC    O9 1159   3.041   4.874   5.425
   24DPPC   O10 1160   3.181   4.948   5.637
   24DPPC   O11 1161   3.286   4.937   5.414
   24DPPC   C12 1162   3.248   4.916   5.277
   24DPPC   C13 1163   3.367   4.910   5.181
   24DPPC   O14 1164   3.308   4.923   5.051
   24DPPC   C15 1165   3.280   5.044   4.996
   24DPPC   O16 1166   3.338   5.146   5.033
   24DPPC   C17 1167   3.212   5.037   4.859
   24DPPC   C18 1168   3.305   5.080   4.746
   24DPPC   C19 1169   3.402   4.972   4.698
   24DPPC   C20 1170   3.544   5.031   4.706
   24DPPC   C21 1171   3.631   4.934   4.625
   24DPPC   C22 1172   3.773   4.982   4.595
   24DPPC   C23 1173   3.836   4.896   4.486
   24DPPC   C24 1174   3.974   4.943   4.442
   24DPPC   C25 1175   4.031   4.882   4.313
   24DPPC   C26 1176   4.158   4.960   4.280
   24DPPC   C27 1177   4.221   4.914   4.148
   24DPPC   C28 1178   4.328   5.016   4.110
   24DPPC   C29 1179   4.424   4.957   4.006
   24DPPC   C30 1180   4.537   5.054   3.973
   24DPPC   C31 1181   4.638   5.099   4.079
   24DPPC   C32 1182   3.420   4.769   5.202
   24DPPC   O33 1183   3.332   4.657   5.194
   24DPPC   C34 1184   3.385   4.532   5.203
   24DPPC   O35 1185   3.500   4.518   5.244
   24DPPC   C36 1186   3.309   4.412   5.147
   24DPPC   C37 1187   3.365   4.364   5.013
   24DPPC   C38 1188   3.359   4.473   4.906
   24DPPC   C39 1189   3.408   4.423   4.770
   24DPPC   C40 1190   3.446   4.535   4.672
   24DPPC   C41 1191   3.468   4.478   4.532
   24DPPC   C42 1192   3.532   4.585   4.444
   24DPPC   C43 1193   3.585   4.530   4.311
   24DPPC   C44 1194   3.670   4.638   4.245
   24DPPC   C45 1195   3.744   4.606   4.114
   24DPPC   C46 1196   3.840   4.715   4.067
   24DPPC   C47 1197   3.935   4.660   3.960
   24DPPC   C48 1198   3.996   4.764   3.866
   24DPPC   C49 1199   4.069   4.703   3.746
   24DPPC   C50 1200   4.157   4.591   3.801
   25DPPC    C1 1201   3.988   5.365   5.393
   25DPPC    C2 1202   3.941   5.527   5.226
   25DPPC    C3 1203   3.798   5.335   5.281
   25DPPC    N4 1204   3.881   5.445   5.332
   25DPPC    C5 1205   3.826   5.522   5.445
   25DPPC    C6 1206   3.760   5.657   5.414
   25DPPC    O7 1207   3.647   5.636   5.328
   25DPPC    P8 1208   3.551   5.761   5.299
   25DPPC    O9 1209   3.652   5.848   5.234
   25DPPC   O10 1210   3.472   5.810   5.415
   25DPPC   O11 1211   3.462   5.678   5.194
   25DPPC   C12 1212   3.556   5.644   5.092
   25DPPC   C13 1213   3.517   5.584   4.957
   25DPPC   O14 1214   3.622   5.520   4.883
   25DPPC   C15 1215   3.679   5.401   4.916
   25DPPC   O16 1216   3.655   5.352   5.026
   25DPPC   C17 1217   3.769   5.337   4.810
   25DPPC   C18 1218   3.846   5.449   4.741
   25DPPC   C19 1219   3.881   5.390   4.604
   25DPPC   C20 1220   3.994   5.287   4.614
   25DPPC   C21 1221   4.139   5.336   4.623
   25DPPC   C22 1222   4.234   5.228   4.572
   25DPPC   C23 1223   4.368   5.250   4.643
   25DPPC   C24 1224   4.485   5.179   4.576
   25DPPC   C25 1225   4.608   5.155   4.664
   25DPPC   C26 1226   4.726   5.130   4.570
   25DPPC   C27 1227   4.823   5.248   4.564
   25DPPC   C28 1228   4.940   5.202   4.477
   25DPPC   C29 1229   5.023   5.328   4.450
   25DPPC   C30 1230   5.121   5.279   4.343
   25DPPC   C31 1231   5.050   5.210   4.227
   25DPPC   C32 1232   3.456   5.706   4.887
   25DPPC   O33 1233   3.548   5.814   4.870
   25DPPC   C34 1234   3.491   5.928   4.821
   25DPPC   O35 1235   3.377   5.964   4.851
   25DPPC   C36 1236   3.594   6.030   4.774
   25DPPC   C37 1237   3.609   6.015   4.623
   25DPPC   C38 1238   3.707   5.901   4.590
   25DPPC   C39 1239   3.767   5.904   4.449
   25DPPC   C40 1240   3.673   5.843   4.345
   25DPPC   C41 1241   3.730   5.839   4.203
   25DPPC   C42 1242   3.860   5.760   4.195
   25DPPC   C43 1243   3.854   5.612   4.233
   25DPPC   C44 1244   3.973   5.521   4.202
   25DPPC   C45 1245   3.992   5.494   4.053
   25DPPC   C46 1246   4.111   5.408   4.010
   25DPPC   C47 1247   4.096   5.348   3.870
   25DPPC   C48 1248   4.213   5.260   3.825
   25DPPC   C49 1249   4.182   5.176   3.701
   25DPPC   C50 1250   4.313   5.109   3.658
   26DPPC    C1 1251   3.677   2.632   5.930
   26DPPC    C2 1252   3.672   2.483   5.756
   26DPPC    C3 1253   3.671   2.700   5.695
   26DPPC    N4 1254   3.732   2.611   5.794
   26DPPC    C5 1255   3.877   2.602   5.777
   26DPPC    C6 1256   3.953   2.731   5.811
   26DPPC    O7 1257   3.966   2.826   5.704
   26DPPC    P8 1258   4.024   2.961   5.769
   26DPPC    O9 1259   3.994   2.957   5.914
   26DPPC   O10 1260   4.025   3.087   5.691
   26DPPC   O11 1261   4.175   2.904   5.770
   26DPPC   C12 1262   4.262   2.955   5.669
   26DPPC   C13 1263   4.399   2.888   5.671
   26DPPC   O14 1264   4.475   2.923   5.554
   26DPPC   C15 1265   4.542   3.039   5.532
   26DPPC   O16 1266   4.526   3.125   5.618
   26DPPC   C17 1267   4.588   3.069   5.389
   26DPPC   C18 1268   4.738   3.099   5.393
   26DPPC   C19 1269   4.791   3.122   5.251
   26DPPC   C20 1270   4.939   3.159   5.239
   26DPPC   C21 1271   4.966   3.148   5.088
   26DPPC   C22 1272   4.964   3.001   5.046
   26DPPC   C23 1273   4.977   3.000   4.894
   26DPPC   C24 1274   4.947   2.870   4.818
   26DPPC   C25 1275   4.979   2.870   4.668
   26DPPC   C26 1276   4.942   2.738   4.600
   26DPPC   C27 1277   4.956   2.748   4.448
   26DPPC   C28 1278   4.917   2.629   4.360
   26DPPC   C29 1279   4.904   2.675   4.215
   26DPPC   C30 1280   4.879   2.554   4.125
   26DPPC   C31 1281   4.900   2.580   3.976
   26DPPC   C32 1282   4.366   2.739   5.671
   26DPPC   O33 1283   4.279   2.695   5.567
   26DPPC   C34 1284   4.223   2.571   5.579
   26DPPC   O35 1285   4.226   2.528   5.694
   26DPPC   C36 1286   4.147   2.526   5.454
   26DPPC   C37 1287   4.228   2.439   5.357
   26DPPC   C38 1288   4.143   2.414   5.233
   26DPPC   C39 1289   4.097   2.546   5.172
   26DPPC   C40 1290   4.078   2.515   5.023
   26DPPC   C41 1291   4.050   2.643   4.944
   26DPPC   C42 1292   4.053   2.610   4.795
   26DPPC   C43 1293   4.055   2.742   4.719
   26DPPC   C44 1294   4.195   2.802   4.723
   26DPPC   C45 1295   4.193   2.925   4.633
   26DPPC   C46 1296   4.140   2.887   4.494
   26DPPC   C47 1297   4.096   3.001   4.402
   26DPPC   C48 1298   4.044   2.964   4.263
   26DPPC   C49 1299   4.014   3.081   4.168
   26DPPC   C50 1300   3.925   3.190   4.229
   27DPPC    C1 1301   3.775   0.169   5.479
   27DPPC    C2 1302   3.663   0.355   5.408
   27DPPC    C3 1303   3.845   0.285   5.273
   27DPPC    N4 1304   3.734   0.236   5.355
   27DPPC    C5 1305   3.637   0.146   5.292
   27DPPC    C6 1306   3.681   0.007   5.246
   27DPPC    O7 1307   3.793   0.000   5.157
   27DPPC    P8 1308   3.842  -0.153   5.167
   27DPPC    O9 1309   3.732  -0.233   5.226
   27DPPC   O10 1310   3.979  -0.149   5.223
   27DPPC   O11 1311   3.849  -0.196   5.012
   27DPPC   C12 1312   3.958  -0.123   4.955
   27DPPC   C13 1313   3.953  -0.105   4.803
   27DPPC   O14 1314   3.883   0.015   4.768
   27DPPC   C15 1315   3.959   0.107   4.703
   27DPPC   O16 1316   4.073   0.131   4.744
   27DPPC   C17 1317   3.874   0.223   4.650
   27DPPC   C18 1318   3.935   0.291   4.527
   27DPPC   C19 1319   3.850   0.412   4.486
   27DPPC   C20 1320   3.917   0.471   4.362
   27DPPC   C21 1321   3.896   0.378   4.242
   27DPPC   C22 1322   4.005   0.400   4.136
   27DPPC   C23 1323   4.005   0.342   3.995
   27DPPC   C24 1324   4.106   0.412   3.904
   27DPPC   C25 1325   4.107   0.333   3.773
   27DPPC   C26 1326   4.188   0.208   3.806
   27DPPC   C27 1327   4.174   0.104   3.695
   27DPPC   C28 1328   4.245  -0.030   3.713
   27DPPC   C29 1329   4.225  -0.144   3.612
   27DPPC   C30 1330   4.074  -0.145   3.588
   27DPPC   C31 1331   4.017  -0.284   3.617
   27DPPC   C32 1332   3.883  -0.230   4.750
   27DPPC   O33 1333   3.954  -0.353   4.758
   27DPPC   C34 1334   3.884  -0.467   4.733
   27DPPC   O35 1335   3.762  -0.483   4.725
   27DPPC   C36 1336   3.976  -0.589   4.724
   27DPPC   C37 1337   4.024  -0.637   4.587
   27DPPC   C38 1338   4.107  -0.527   4.521
   27DPPC   C39 1339   4.146  -0.574   4.381
   27DPPC   C40 1340   4.255  -0.473   4.342
   27DPPC   C41 1341   4.312  -0.512   4.205
   27DPPC   C42 1342   4.397  -0.396   4.152
   27DPPC   C43 1343   4.469  -0.436   4.023
   27DPPC   C44 1344   4.566  -0.328   3.974
   27DPPC   C45 1345   4.625  -0.383   3.843
   27DPPC   C46 1346   4.523  -0.370   3.730
   27DPPC   C47 1347   4.590  -0.425   3.604
   27DPPC   C48 1348   4.505  -0.424   3.477
   27DPPC   C49 1349   4.613  -0.472   3.381
   27DPPC   C50 1350   4.632  -0.624   3.369
   28DPPC    C1 1351   8.748   2.453   5.559
   28DPPC    C2 1352   8.806   2.455   5.788
   28DPPC    C3 1353   8.754   2.659   5.677
   28DPPC    N4 1354   8.718   2.517   5.688
   28DPPC    C5 1355   8.588   2.463   5.731
   28DPPC    C6 1356   8.463   2.527   5.670
   28DPPC    O7 1357   8.416   2.620   5.768
   28DPPC    P8 1358   8.289   2.708   5.723
   28DPPC    O9 1359   8.300   2.824   5.814
   28DPPC   O10 1360   8.183   2.605   5.729
   28DPPC   O11 1361   8.361   2.736   5.582
   28DPPC   C12 1362   8.265   2.761   5.479
   28DPPC   C13 1363   8.339   2.825   5.361
   28DPPC   O14 1364   8.254   2.884   5.261
   28DPPC   C15 1365   8.292   3.000   5.201
   28DPPC   O16 1366   8.408   3.039   5.216
   28DPPC   C17 1367   8.203   3.048   5.086
   28DPPC   C18 1368   8.063   3.087   5.134
   28DPPC   C19 1369   7.955   3.090   5.026
   28DPPC   C20 1370   7.987   3.188   4.914
   28DPPC   C21 1371   7.899   3.163   4.791
   28DPPC   C22 1372   7.933   3.270   4.688
   28DPPC   C23 1373   7.848   3.231   4.567
   28DPPC   C24 1374   7.842   3.351   4.473
   28DPPC   C25 1375   7.789   3.314   4.334
   28DPPC   C26 1376   7.839   3.423   4.239
   28DPPC   C27 1377   7.772   3.413   4.102
   28DPPC   C28 1378   7.791   3.543   4.023
   28DPPC   C29 1379   7.679   3.556   3.920
   28DPPC   C30 1380   7.702   3.677   3.829
   28DPPC   C31 1381   7.594   3.672   3.720
   28DPPC   C32 1382   8.438   2.720   5.310
   28DPPC   O33 1383   8.374   2.599   5.271
   28DPPC   C34 1384   8.447   2.492   5.227
   28DPPC   O35 1385   8.562   2.477   5.268
   28DPPC   C36 1386   8.368   2.375   5.167
   28DPPC   C37 1387   8.342   2.396   5.018
   28DPPC   C38 1388   8.235   2.501   4.987
   28DPPC   C39 1389   8.218   2.511   4.836
   28DPPC   C40 1390   8.128   2.629   4.798
   28DPPC   C41 1391   8.098   2.635   4.648
   28DPPC   C42 1392   8.028   2.769   4.624
   28DPPC   C43 1393   7.980   2.788   4.480
   28DPPC   C44 1394   8.051   2.907   4.416
   28DPPC   C45 1395   8.021   2.929   4.267
   28DPPC   C46 1396   8.074   3.063   4.214
   28DPPC   C47 1397   8.038   3.052   4.065
   28DPPC   C48 1398   8.069   3.188   4.003
   28DPPC   C49 1399   8.013   3.182   3.861
   28DPPC   C50 1400   8.051   3.299   3.770
   29DPPC    C1 1401   0.549   4.779   5.262
   29DPPC    C2 1402   0.486   4.690   5.062
   29DPPC    C3 1403   0.321   4.783   5.161
   29DPPC    N4 1404   0.465   4.809   5.146
   29DPPC    C5 1405   0.504   4.928   5.069
   29DPPC    C6 1406   0.482   5.061   5.141
   29DPPC    O7 1407   0.549   5.166   5.071
   29DPPC    P8 1408   0.497   5.310   5.122
   29DPPC    O9 1409   0.606   5.355   5.212
   29DPPC   O10 1410   0.367   5.279   5.185
   29DPPC   O11 1411   0.514   5.381   4.979
   29DPPC   C12 1412   0.425   5.329   4.880
   29DPPC   C13 1413   0.448   5.393   4.744
   29DPPC   O14 1414   0.345   5.355   4.651
   29DPPC   C15 1415   0.237   5.435   4.630
   29DPPC   O16 1416   0.215   5.535   4.698
   29DPPC   C17 1417   0.151   5.408   4.506
   29DPPC   C18 1418   0.228   5.447   4.380
   29DPPC   C19 1419   0.157   5.386   4.259
   29DPPC   C20 1420   0.255   5.371   4.142
   29DPPC   C21 1421   0.187   5.348   4.007
   29DPPC   C22 1422   0.071   5.443   3.976
   29DPPC   C23 1423  -0.017   5.417   3.854
   29DPPC   C24 1424  -0.098   5.537   3.805
   29DPPC   C25 1425  -0.159   5.535   3.665
   29DPPC   C26 1426  -0.281   5.444   3.649
   29DPPC   C27 1427  -0.362   5.455   3.520
   29DPPC   C28 1428  -0.486   5.365   3.509
   29DPPC   C29 1429  -0.554   5.385   3.374
   29DPPC   C30 1430  -0.613   5.526   3.384
   29DPPC   C31 1431  -0.694   5.571   3.262
   29DPPC   C32 1432   0.592   5.358   4.706
   29DPPC   O33 1433   0.630   5.220   4.702
   29DPPC   C34 1434   0.757   5.199   4.660
   29DPPC   O35 1435   0.821   5.294   4.613
   29DPPC   C36 1436   0.810   5.057   4.680
   29DPPC   C37 1437   0.894   5.020   4.558
   29DPPC   C38 1438   0.979   4.894   4.569
   29DPPC   C39 1439   1.068   4.876   4.446
   29DPPC   C40 1440   0.995   4.866   4.312
   29DPPC   C41 1441   1.091   4.831   4.198
   29DPPC   C42 1442   1.022   4.855   4.063
   29DPPC   C43 1443   1.112   4.842   3.940
   29DPPC   C44 1444   1.039   4.879   3.811
   29DPPC   C45 1445   1.120   4.855   3.683
   29DPPC   C46 1446   1.049   4.928   3.569
   29DPPC   C47 1447   1.119   4.902   3.436
   29DPPC   C48 1448   1.072   4.992   3.322
   29DPPC   C49 1449   1.166   4.981   3.202
   29DPPC   C50 1450   1.120   5.062   3.081
   30DPPC    C1 1451   6.835   1.892   6.143
   30DPPC    C2 1452   7.019   1.870   5.983
   30DPPC    C3 1453   6.823   1.945   5.900
   30DPPC    N4 1454   6.901   1.947   6.024
   30DPPC    C5 1455   6.955   2.082   6.048
   30DPPC    C6 1456   6.858   2.183   6.109
   30DPPC    O7 1457   6.914   2.315   6.117
   30DPPC    P8 1458   6.816   2.414   6.036
   30DPPC    O9 1459   6.863   2.552   6.059
   30DPPC   O10 1460   6.673   2.385   6.059
   30DPPC   O11 1461   6.845   2.379   5.882
   30DPPC   C12 1462   6.800   2.494   5.810
   30DPPC   C13 1463   6.876   2.499   5.678
   30DPPC   O14 1464   6.831   2.595   5.581
   30DPPC   C15 1465   6.909   2.706   5.570
   30DPPC   O16 1466   6.987   2.743   5.658
   30DPPC   C17 1467   6.882   2.793   5.446
   30DPPC   C18 1468   6.824   2.933   5.469
   30DPPC   C19 1469   6.805   3.019   5.345
   30DPPC   C20 1470   6.939   3.076   5.297
   30DPPC   C21 1471   6.927   3.146   5.161
   30DPPC   C22 1472   7.057   3.220   5.128
   30DPPC   C23 1473   7.030   3.311   5.008
   30DPPC   C24 1474   6.906   3.400   5.023
   30DPPC   C25 1475   6.912   3.486   4.897
   30DPPC   C26 1476   6.980   3.618   4.934
   30DPPC   C27 1477   7.013   3.692   4.804
   30DPPC   C28 1478   6.891   3.724   4.718
   30DPPC   C29 1479   6.812   3.828   4.797
   30DPPC   C30 1480   6.661   3.805   4.783
   30DPPC   C31 1481   6.625   3.821   4.636
   30DPPC   C32 1482   6.870   2.361   5.611
   30DPPC   O33 1483   6.948   2.336   5.494
   30DPPC   C34 1484   6.972   2.208   5.454
   30DPPC   O35 1485   6.881   2.137   5.496
   30DPPC   C36 1486   7.095   2.176   5.369
   30DPPC   C37 1487   7.064   2.150   5.222
   30DPPC   C38 1488   7.040   2.274   5.134
   30DPPC   C39 1489   7.041   2.235   4.986
   30DPPC   C40 1490   7.019   2.362   4.904
   30DPPC   C41 1491   6.985   2.317   4.762
   30DPPC   C42 1492   6.876   2.413   4.713
   30DPPC   C43 1493   6.846   2.421   4.563
   30DPPC   C44 1494   6.728   2.515   4.540
   30DPPC   C45 1495   6.714   2.544   4.390
   30DPPC   C46 1496   6.587   2.622   4.359
   30DPPC   C47 1497   6.572   2.740   4.455
   30DPPC   C48 1498   6.458   2.834   4.416
   30DPPC   C49 1499   6.466   2.957   4.508
   30DPPC   C50 1500   6.357   3.050   4.456
   31DPPC    C1 1501   6.008   7.057   5.271
   31DPPC    C2 1502   6.142   7.053   5.073
   31DPPC    C3 1503   6.227   7.079   5.301
   31DPPC    N4 1504   6.134   7.007   5.213
   31DPPC    C5 1505   6.146   6.864   5.245
   31DPPC    C6 1506   6.082   6.759   5.155
   31DPPC    O7 1507   5.940   6.771   5.161
   31DPPC    P8 1508   5.858   6.693   5.275
   31DPPC    O9 1509   5.847   6.792   5.385
   31DPPC   O10 1510   5.941   6.574   5.305
   31DPPC   O11 1511   5.717   6.664   5.204
   31DPPC   C12 1512   5.746   6.597   5.081
   31DPPC   C13 1513   5.653   6.480   5.048
   31DPPC   O14 1514   5.692   6.397   4.937
   31DPPC   C15 1515   5.683   6.264   4.961
   31DPPC   O16 1516   5.712   6.230   5.076
   31DPPC   C17 1517   5.699   6.175   4.837
   31DPPC   C18 1518   5.563   6.147   4.774
   31DPPC   C19 1519   5.593   6.106   4.629
   31DPPC   C20 1520   5.473   6.099   4.535
   31DPPC   C21 1521   5.516   6.046   4.398
   31DPPC   C22 1522   5.386   6.014   4.324
   31DPPC   C23 1523   5.295   6.137   4.322
   31DPPC   C24 1524   5.184   6.112   4.221
   31DPPC   C25 1525   5.104   6.242   4.207
   31DPPC   C26 1526   5.031   6.233   4.073
   31DPPC   C27 1527   4.986   6.377   4.046
   31DPPC   C28 1528   4.881   6.412   4.152
   31DPPC   C29 1529   4.809   6.541   4.110
   31DPPC   C30 1530   4.693   6.564   4.206
   31DPPC   C31 1531   4.754   6.603   4.341
   31DPPC   C32 1532   5.513   6.541   5.047
   31DPPC   O33 1533   5.495   6.643   4.949
   31DPPC   C34 1534   5.385   6.723   4.953
   31DPPC   O35 1535   5.290   6.692   5.025
   31DPPC   C36 1536   5.393   6.842   4.858
   31DPPC   C37 1537   5.356   6.806   4.714
   31DPPC   C38 1538   5.372   6.932   4.629
   31DPPC   C39 1539   5.335   6.884   4.488
   31DPPC   C40 1540   5.356   6.987   4.377
   31DPPC   C41 1541   5.481   7.069   4.407
   31DPPC   C42 1542   5.503   7.173   4.297
   31DPPC   C43 1543   5.643   7.236   4.293
   31DPPC   C44 1544   5.673   7.335   4.405
   31DPPC   C45 1545   5.575   7.451   4.382
   31DPPC   C46 1546   5.596   7.551   4.496
   31DPPC   C47 1547   5.544   7.497   4.629
   31DPPC   C48 1548   5.399   7.450   4.618
   31DPPC   C49 1549   5.330   7.466   4.753
   31DPPC   C50 1550   5.198   7.388   4.758
   32DPPC    C1 1551   1.144   7.575   4.816
   32DPPC    C2 1552   1.027   7.780   4.798
   32DPPC    C3 1553   1.012   7.601   4.631
   32DPPC    N4 1554   1.017   7.635   4.774
   32DPPC    C5 1555   0.913   7.565   4.851
   32DPPC    C6 1556   0.781   7.636   4.879
   32DPPC    O7 1557   0.707   7.661   4.759
   32DPPC    P8 1558   0.595   7.775   4.780
   32DPPC    O9 1559   0.665   7.905   4.788
   32DPPC   O10 1560   0.493   7.735   4.879
   32DPPC   O11 1561   0.534   7.753   4.632
   32DPPC   C12 1562   0.630   7.792   4.535
   32DPPC   C13 1563   0.596   7.734   4.397
   32DPPC   O14 1564   0.693   7.752   4.292
   32DPPC   C15 1565   0.670   7.669   4.188
   32DPPC   O16 1566   0.615   7.562   4.213
   32DPPC   C17 1567   0.736   7.698   4.053
   32DPPC   C18 1568   0.849   7.600   4.024
   32DPPC   C19 1569   0.930   7.630   3.898
   32DPPC   C20 1570   1.080   7.637   3.926
   32DPPC   C21 1571   1.168   7.651   3.802
   32DPPC   C22 1572   1.146   7.533   3.707
   32DPPC   C23 1573   1.240   7.532   3.587
   32DPPC   C24 1574   1.212   7.425   3.481
   32DPPC   C25 1575   1.217   7.292   3.557
   32DPPC   C26 1576   1.192   7.183   3.453
   32DPPC   C27 1577   1.051   7.202   3.396
   32DPPC   C28 1578   1.013   7.087   3.302
   32DPPC   C29 1579   1.003   6.956   3.381
   32DPPC   C30 1580   0.871   6.951   3.458
   32DPPC   C31 1581   0.862   6.805   3.505
   32DPPC   C32 1582   0.455   7.782   4.362
   32DPPC   O33 1583   0.447   7.920   4.326
   32DPPC   C34 1584   0.320   7.962   4.301
   32DPPC   O35 1585   0.226   7.883   4.290
   32DPPC   C36 1586   0.300   8.113   4.284
   32DPPC   C37 1587   0.196   8.157   4.181
   32DPPC   C38 1588   0.209   8.306   4.151
   32DPPC   C39 1589   0.086   8.339   4.066
   32DPPC   C40 1590   0.093   8.483   4.013
   32DPPC   C41 1591   0.037   8.497   3.871
   32DPPC   C42 1592   0.032   8.641   3.822
   32DPPC   C43 1593   0.013   8.652   3.670
   32DPPC   C44 1594  -0.122   8.603   3.619
   32DPPC   C45 1595  -0.112   8.620   3.468
   32DPPC   C46 1596  -0.242   8.593   3.391
   32DPPC   C47 1597  -0.220   8.608   3.240
   32DPPC   C48 1598  -0.345   8.568   3.160
   32DPPC   C49 1599  -0.327   8.549   3.010
   32DPPC   C50 1600  -0.217   8.443   2.998
   33DPPC    C1 1601   2.357   2.323   5.331
   33DPPC    C2 1602   2.238   2.511   5.288
   33DPPC    C3 1603   2.354   2.418   5.105
   33DPPC    N4 1604   2.276   2.384   5.225
   33DPPC    C5 1605   2.166   2.302   5.171
   33DPPC    C6 1606   2.053   2.254   5.262
   33DPPC    O7 1607   1.938   2.194   5.202
   33DPPC    P8 1608   1.814   2.293   5.174
   33DPPC    O9 1609   1.838   2.398   5.275
   33DPPC   O10 1610   1.696   2.204   5.171
   33DPPC   O11 1611   1.856   2.348   5.029
   33DPPC   C12 1612   1.812   2.260   4.925
   33DPPC   C13 1613   1.824   2.325   4.787
   33DPPC   O14 1614   1.749   2.254   4.686
   33DPPC   C15 1615   1.626   2.309   4.666
   33DPPC   O16 1616   1.603   2.415   4.723
   33DPPC   C17 1617   1.549   2.263   4.542
   33DPPC   C18 1618   1.471   2.374   4.470
   33DPPC   C19 1619   1.413   2.345   4.332
   33DPPC   C20 1620   1.332   2.464   4.281
   33DPPC   C21 1621   1.248   2.430   4.157
   33DPPC   C22 1622   1.147   2.317   4.177
   33DPPC   C23 1623   1.074   2.307   4.043
   33DPPC   C24 1624   1.169   2.262   3.932
   33DPPC   C25 1625   1.084   2.262   3.805
   33DPPC   C26 1626   1.157   2.176   3.702
   33DPPC   C27 1627   1.301   2.225   3.722
   33DPPC   C28 1628   1.393   2.153   3.623
   33DPPC   C29 1629   1.544   2.162   3.643
   33DPPC   C30 1630   1.616   2.078   3.536
   33DPPC   C31 1631   1.701   2.155   3.434
   33DPPC   C32 1632   1.975   2.334   4.765
   33DPPC   O33 1633   2.054   2.215   4.777
   33DPPC   C34 1634   2.189   2.229   4.768
   33DPPC   O35 1635   2.237   2.341   4.786
   33DPPC   C36 1636   2.286   2.122   4.718
   33DPPC   C37 1637   2.214   1.997   4.666
   33DPPC   C38 1638   2.195   2.005   4.514
   33DPPC   C39 1639   2.145   1.871   4.459
   33DPPC   C40 1640   2.140   1.874   4.307
   33DPPC   C41 1641   2.124   1.734   4.247
   33DPPC   C42 1642   2.117   1.751   4.095
   33DPPC   C43 1643   2.244   1.826   4.053
   33DPPC   C44 1644   2.260   1.825   3.900
   33DPPC   C45 1645   2.179   1.947   3.856
   33DPPC   C46 1646   2.213   1.984   3.711
   33DPPC   C47 1647   2.138   2.105   3.654
   33DPPC   C48 1648   2.189   2.143   3.515
   33DPPC   C49 1649   2.091   2.251   3.468
   33DPPC   C50 1650   2.107   2.275   3.317
   34DPPC    C1 1651   2.988   4.358   5.513
   34DPPC    C2 1652   2.910   4.491   5.351
   34DPPC    C3 1653   2.922   4.600   5.563
   34DPPC    N4 1654   2.987   4.500   5.476
   34DPPC    C5 1655   3.120   4.553   5.444
   34DPPC    C6 1656   3.222   4.538   5.557
   34DPPC    O7 1657   3.328   4.630   5.532
   34DPPC    P8 1658   3.431   4.621   5.655
   34DPPC    O9 1659   3.354   4.618   5.782
   34DPPC   O10 1660   3.563   4.687   5.646
   34DPPC   O11 1661   3.455   4.463   5.635
   34DPPC   C12 1662   3.557   4.437   5.537
   34DPPC   C13 1663   3.621   4.299   5.540
   34DPPC   O14 1664   3.716   4.261   5.439
   34DPPC   C15 1665   3.840   4.315   5.445
   34DPPC   O16 1666   3.868   4.410   5.518
   34DPPC   C17 1667   3.951   4.263   5.353
   34DPPC   C18 1668   3.988   4.338   5.224
   34DPPC   C19 1669   3.870   4.355   5.129
   34DPPC   C20 1670   3.896   4.443   5.007
   34DPPC   C21 1671   3.767   4.484   4.936
   34DPPC   C22 1672   3.795   4.550   4.802
   34DPPC   C23 1673   3.847   4.453   4.696
   34DPPC   C24 1674   3.890   4.536   4.575
   34DPPC   C25 1675   3.938   4.446   4.460
   34DPPC   C26 1676   4.074   4.489   4.406
   34DPPC   C27 1677   4.144   4.376   4.330
   34DPPC   C28 1678   4.277   4.431   4.278
   34DPPC   C29 1679   4.350   4.340   4.179
   34DPPC   C30 1680   4.498   4.372   4.152
   34DPPC   C31 1681   4.509   4.511   4.088
   34DPPC   C32 1682   3.503   4.204   5.566
   34DPPC   O33 1683   3.398   4.203   5.468
   34DPPC   C34 1684   3.307   4.103   5.472
   34DPPC   O35 1685   3.273   4.074   5.587
   34DPPC   C36 1686   3.228   4.085   5.342
   34DPPC   C37 1687   3.229   3.938   5.299
   34DPPC   C38 1688   3.169   3.942   5.158
   34DPPC   C39 1689   3.274   3.992   5.059
   34DPPC   C40 1690   3.218   3.982   4.917
   34DPPC   C41 1691   3.302   3.894   4.825
   34DPPC   C42 1692   3.213   3.855   4.707
   34DPPC   C43 1693   3.310   3.804   4.600
   34DPPC   C44 1694   3.252   3.788   4.459
   34DPPC   C45 1695   3.363   3.722   4.378
   34DPPC   C46 1696   3.318   3.715   4.231
   34DPPC   C47 1697   3.335   3.852   4.166
   34DPPC   C48 1698   3.302   3.845   4.017
   34DPPC   C49 1699   3.349   3.977   3.955
   34DPPC   C50 1700   3.339   3.970   3.802
   35DPPC    C1 1701   1.508   2.674   1.466
   35DPPC    C2 1702   1.409   2.877   1.552
   35DPPC    C3 1703   1.472   2.695   1.698
   35DPPC    N4 1704   1.507   2.770   1.577
   35DPPC    C5 1705   1.642   2.827   1.589
   35DPPC    C6 1706   1.700   2.904   1.470
   35DPPC    O7 1707   1.817   2.978   1.505
   35DPPC    P8 1708   1.817   3.112   1.417
   35DPPC    O9 1709   1.737   3.096   1.294
   35DPPC   O10 1710   1.932   3.205   1.427
   35DPPC   O11 1711   1.695   3.174   1.502
   35DPPC   C12 1712   1.750   3.237   1.619
   35DPPC   C13 1713   1.625   3.299   1.681
   35DPPC   O14 1714   1.656   3.415   1.760
   35DPPC   C15 1715   1.723   3.520   1.706
   35DPPC   O16 1716   1.705   3.539   1.586
   35DPPC   C17 1717   1.776   3.624   1.806
   35DPPC   C18 1718   1.664   3.664   1.902
   35DPPC   C19 1719   1.727   3.692   2.039
   35DPPC   C20 1720   1.628   3.741   2.145
   35DPPC   C21 1721   1.707   3.754   2.275
   35DPPC   C22 1722   1.612   3.779   2.393
   35DPPC   C23 1723   1.695   3.807   2.519
   35DPPC   C24 1724   1.598   3.872   2.618
   35DPPC   C25 1725   1.675   3.970   2.707
   35DPPC   C26 1726   1.577   4.059   2.784
   35DPPC   C27 1727   1.517   3.972   2.895
   35DPPC   C28 1728   1.423   4.053   2.985
   35DPPC   C29 1729   1.385   3.965   3.104
   35DPPC   C30 1730   1.314   4.052   3.208
   35DPPC   C31 1731   1.402   4.173   3.239
   35DPPC   C32 1732   1.542   3.198   1.761
   35DPPC   O33 1733   1.622   3.098   1.825
   35DPPC   C34 1734   1.550   3.001   1.886
   35DPPC   O35 1735   1.438   2.971   1.843
   35DPPC   C36 1736   1.623   2.908   1.983
   35DPPC   C37 1737   1.727   2.979   2.070
   35DPPC   C38 1738   1.656   3.084   2.155
   35DPPC   C39 1739   1.759   3.137   2.255
   35DPPC   C40 1740   1.692   3.246   2.340
   35DPPC   C41 1741   1.729   3.252   2.488
   35DPPC   C42 1742   1.638   3.363   2.542
   35DPPC   C43 1743   1.632   3.360   2.694
   35DPPC   C44 1744   1.538   3.460   2.761
   35DPPC   C45 1745   1.539   3.452   2.914
   35DPPC   C46 1746   1.453   3.575   2.946
   35DPPC   C47 1747   1.308   3.532   2.923
   35DPPC   C48 1748   1.214   3.652   2.908
   35DPPC   C49 1749   1.072   3.595   2.903
   35DPPC   C50 1750   1.017   3.546   3.037
   36DPPC    C1 1751   6.184   6.357   1.821
   36DPPC    C2 1752   6.345   6.358   1.981
   36DPPC    C3 1753   6.361   6.520   1.797
   36DPPC    N4 1754   6.273   6.450   1.892
   36DPPC    C5 1755   6.196   6.542   1.978
   36DPPC    C6 1756   6.114   6.658   1.920
   36DPPC    O7 1757   6.187   6.765   1.860
   36DPPC    P8 1758   6.075   6.878   1.835
   36DPPC    O9 1759   5.949   6.806   1.805
   36DPPC   O10 1760   6.132   6.975   1.739
   36DPPC   O11 1761   6.065   6.936   1.985
   36DPPC   C12 1762   6.196   6.957   2.039
   36DPPC   C13 1763   6.211   7.030   2.173
   36DPPC   O14 1764   6.341   7.003   2.227
   36DPPC   C15 1765   6.434   7.100   2.205
   36DPPC   O16 1766   6.431   7.180   2.111
   36DPPC   C17 1767   6.568   7.096   2.278
   36DPPC   C18 1768   6.528   7.090   2.426
   36DPPC   C19 1769   6.653   7.082   2.513
   36DPPC   C20 1770   6.626   7.095   2.663
   36DPPC   C21 1771   6.742   7.092   2.763
   36DPPC   C22 1772   6.690   7.108   2.906
   36DPPC   C23 1773   6.809   7.096   3.000
   36DPPC   C24 1774   6.782   7.153   3.139
   36DPPC   C25 1775   6.906   7.217   3.202
   36DPPC   C26 1776   6.867   7.280   3.336
   36DPPC   C27 1777   6.793   7.177   3.423
   36DPPC   C28 1778   6.725   7.228   3.550
   36DPPC   C29 1779   6.817   7.292   3.654
   36DPPC   C30 1780   6.745   7.337   3.781
   36DPPC   C31 1781   6.857   7.389   3.871
   36DPPC   C32 1782   6.092   6.975   2.251
   36DPPC   O33 1783   6.048   7.056   2.360
   36DPPC   C34 1784   5.969   7.005   2.458
   36DPPC   O35 1785   5.903   6.905   2.430
   36DPPC   C36 1786   5.948   7.083   2.588
   36DPPC   C37 1787   6.069   7.063   2.680
   36DPPC   C38 1788   6.052   7.111   2.824
   36DPPC   C39 1789   5.938   7.033   2.888
   36DPPC   C40 1790   5.989   7.012   3.031
   36DPPC   C41 1791   5.873   6.961   3.116
   36DPPC   C42 1792   5.893   6.959   3.268
   36DPPC   C43 1793   5.805   6.853   3.336
   36DPPC   C44 1794   5.840   6.845   3.485
   36DPPC   C45 1795   5.729   6.783   3.570
   36DPPC   C46 1796   5.787   6.746   3.706
   36DPPC   C47 1797   5.687   6.799   3.810
   36DPPC   C48 1798   5.699   6.717   3.939
   36DPPC   C49 1799   5.616   6.788   4.046
   36DPPC   C50 1800   5.656   6.718   4.175
   37DPPC    C1 1801   8.502   3.015   1.697
   37DPPC    C2 1802   8.581   3.003   1.478
   37DPPC    C3 1803   8.390   3.133   1.507
   37DPPC    N4 1804   8.515   3.093   1.573
   37DPPC    C5 1805   8.609   3.204   1.591
   37DPPC    C6 1806   8.558   3.313   1.685
   37DPPC    O7 1807   8.652   3.421   1.691
   37DPPC    P8 1808   8.579   3.547   1.759
   37DPPC    O9 1809   8.474   3.486   1.843
   37DPPC   O10 1810   8.546   3.613   1.630
   37DPPC   O11 1811   8.707   3.614   1.830
   37DPPC   C12 1812   8.729   3.537   1.948
   37DPPC   C13 1813   8.793   3.612   2.065
   37DPPC   O14 1814   8.850   3.530   2.168
   37DPPC   C15 1815   8.958   3.450   2.145
   37DPPC   O16 1816   9.014   3.454   2.035
   37DPPC   C17 1817   9.009   3.361   2.258
   37DPPC   C18 1818   9.110   3.253   2.219
   37DPPC   C19 1819   9.143   3.176   2.348
   37DPPC   C20 1820   9.221   3.053   2.303
   37DPPC   C21 1821   9.245   2.947   2.411
   37DPPC   C22 1822   9.350   2.850   2.358
   37DPPC   C23 1823   9.378   2.757   2.476
   37DPPC   C24 1824   9.445   2.817   2.600
   37DPPC   C25 1825   9.589   2.860   2.575
   37DPPC   C26 1826   9.661   2.894   2.705
   37DPPC   C27 1827   9.706   2.777   2.792
   37DPPC   C28 1828   9.737   2.827   2.933
   37DPPC   C29 1829   9.754   2.710   3.030
   37DPPC   C30 1830   9.817   2.729   3.169
   37DPPC   C31 1831   9.725   2.814   3.256
   37DPPC   C32 1832   8.686   3.714   2.105
   37DPPC   O33 1833   8.564   3.648   2.139
   37DPPC   C34 1834   8.457   3.702   2.076
   37DPPC   O35 1835   8.464   3.773   1.975
   37DPPC   C36 1836   8.316   3.660   2.118
   37DPPC   C37 1837   8.307   3.657   2.270
   37DPPC   C38 1838   8.358   3.784   2.340
   37DPPC   C39 1839   8.300   3.813   2.478
   37DPPC   C40 1840   8.344   3.703   2.574
   37DPPC   C41 1841   8.256   3.706   2.699
   37DPPC   C42 1842   8.345   3.635   2.803
   37DPPC   C43 1843   8.298   3.652   2.948
   37DPPC   C44 1844   8.416   3.598   3.029
   37DPPC   C45 1845   8.396   3.636   3.176
   37DPPC   C46 1846   8.513   3.579   3.256
   37DPPC   C47 1847   8.514   3.617   3.404
   37DPPC   C48 1848   8.624   3.544   3.481
   37DPPC   C49 1849   8.732   3.648   3.510
   37DPPC   C50 1850   8.856   3.572   3.558
   38DPPC    C1 1851   3.461   4.251   1.519
   38DPPC    C2 1852   3.457   4.485   1.459
   38DPPC    C3 1853   3.277   4.352   1.393
   38DPPC    N4 1854   3.376   4.369   1.500
   38DPPC    C5 1855   3.298   4.412   1.617
   38DPPC    C6 1856   3.205   4.316   1.692
   38DPPC    O7 1857   3.277   4.212   1.759
   38DPPC    P8 1858   3.174   4.098   1.806
   38DPPC    O9 1859   3.243   3.997   1.889
   38DPPC   O10 1860   3.107   4.061   1.679
   38DPPC   O11 1861   3.076   4.192   1.893
   38DPPC   C12 1862   3.115   4.200   2.031
   38DPPC   C13 1863   3.213   4.314   2.055
   38DPPC   O14 1864   3.290   4.287   2.173
   38DPPC   C15 1865   3.381   4.370   2.229
   38DPPC   O16 1866   3.440   4.457   2.164
   38DPPC   C17 1867   3.425   4.320   2.367
   38DPPC   C18 1868   3.422   4.436   2.467
   38DPPC   C19 1869   3.484   4.392   2.599
   38DPPC   C20 1870   3.479   4.513   2.693
   38DPPC   C21 1871   3.542   4.470   2.825
   38DPPC   C22 1872   3.464   4.366   2.906
   38DPPC   C23 1873   3.523   4.312   3.036
   38DPPC   C24 1874   3.568   4.430   3.123
   38DPPC   C25 1875   3.451   4.522   3.158
   38DPPC   C26 1876   3.514   4.628   3.250
   38DPPC   C27 1877   3.409   4.735   3.279
   38DPPC   C28 1878   3.464   4.848   3.367
   38DPPC   C29 1879   3.366   4.965   3.370
   38DPPC   C30 1880   3.415   5.066   3.474
   38DPPC   C31 1881   3.300   5.162   3.505
   38DPPC   C32 1882   3.139   4.448   2.045
   38DPPC   O33 1883   3.028   4.457   2.134
   38DPPC   C34 1884   2.968   4.579   2.143
   38DPPC   O35 1885   3.015   4.688   2.110
   38DPPC   C36 1886   2.844   4.570   2.233
   38DPPC   C37 1887   2.859   4.543   2.383
   38DPPC   C38 1888   2.763   4.433   2.427
   38DPPC   C39 1889   2.815   4.370   2.556
   38DPPC   C40 1890   2.708   4.272   2.607
   38DPPC   C41 1891   2.757   4.179   2.718
   38DPPC   C42 1892   2.820   4.248   2.839
   38DPPC   C43 1893   2.836   4.156   2.960
   38DPPC   C44 1894   2.900   4.246   3.066
   38DPPC   C45 1895   3.053   4.254   3.057
   38DPPC   C46 1896   3.104   4.348   3.166
   38DPPC   C47 1897   3.070   4.295   3.306
   38DPPC   C48 1898   3.136   4.385   3.411
   38DPPC   C49 1899   3.070   4.523   3.401
   38DPPC   C50 1900   3.102   4.616   3.518
   39DPPC    C1 1901   4.261   7.986   2.032
   39DPPC    C2 1902   4.342   8.004   1.800
   39DPPC    C3 1903   4.298   7.792   1.916
   39DPPC    N4 1904   4.256   7.931   1.895
   39DPPC    C5 1905   4.123   7.933   1.835
   39DPPC    C6 1906   4.031   8.054   1.852
   39DPPC    O7 1907   3.902   8.034   1.793
   39DPPC    P8 1908   3.783   8.112   1.868
   39DPPC    O9 1909   3.670   8.127   1.774
   39DPPC   O10 1910   3.830   8.241   1.925
   39DPPC   O11 1911   3.743   7.999   1.976
   39DPPC   C12 1912   3.601   7.994   1.989
   39DPPC   C13 1913   3.546   7.938   2.121
   39DPPC   O14 1914   3.404   7.947   2.137
   39DPPC   C15 1915   3.341   7.828   2.150
   39DPPC   O16 1916   3.384   7.736   2.080
   39DPPC   C17 1917   3.198   7.840   2.202
   39DPPC   C18 1918   3.153   7.705   2.259
   39DPPC   C19 1919   3.002   7.705   2.286
   39DPPC   C20 1920   2.941   7.575   2.339
   39DPPC   C21 1921   2.808   7.602   2.410
   39DPPC   C22 1922   2.767   7.472   2.479
   39DPPC   C23 1923   2.624   7.492   2.531
   39DPPC   C24 1924   2.531   7.532   2.416
   39DPPC   C25 1925   2.395   7.572   2.473
   39DPPC   C26 1926   2.332   7.461   2.557
   39DPPC   C27 1927   2.186   7.444   2.514
   39DPPC   C28 1928   2.105   7.323   2.562
   39DPPC   C29 1929   1.959   7.338   2.517
   39DPPC   C30 1930   1.939   7.349   2.366
   39DPPC   C31 1931   1.792   7.337   2.325
   39DPPC   C32 1932   3.641   8.004   2.222
   39DPPC   O33 1933   3.632   8.146   2.234
   39DPPC   C34 1934   3.693   8.192   2.346
   39DPPC   O35 1935   3.781   8.129   2.404
   39DPPC   C36 1936   3.661   8.330   2.404
   39DPPC   C37 1937   3.534   8.336   2.489
   39DPPC   C38 1938   3.560   8.260   2.620
   39DPPC   C39 1939   3.433   8.253   2.705
   39DPPC   C40 1940   3.438   8.210   2.852
   39DPPC   C41 1941   3.311   8.240   2.932
   39DPPC   C42 1942   3.292   8.164   3.064
   39DPPC   C43 1943   3.156   8.204   3.122
   39DPPC   C44 1944   3.161   8.172   3.271
   39DPPC   C45 1945   3.038   8.236   3.336
   39DPPC   C46 1946   2.992   8.162   3.462
   39DPPC   C47 1947   2.867   8.229   3.520
   39DPPC   C48 1948   2.809   8.147   3.636
   39DPPC   C49 1949   2.884   8.172   3.767
   39DPPC   C50 1950   2.841   8.080   3.882
   40DPPC    C1 1951   3.192   7.147   2.217
   40DPPC    C2 1952   3.311   7.053   2.049
   40DPPC    C3 1953   3.283   6.933   2.260
   40DPPC    N4 1954   3.218   7.016   2.158
   40DPPC    C5 1955   3.095   6.955   2.107
   40DPPC    C6 1956   3.086   6.857   1.989
   40DPPC    O7 1957   3.170   6.743   2.009
   40DPPC    P8 1958   3.144   6.625   1.903
   40DPPC    O9 1959   3.258   6.532   1.917
   40DPPC   O10 1960   3.085   6.654   1.771
   40DPPC   O11 1961   3.026   6.574   2.001
   40DPPC   C12 1962   3.091   6.485   2.093
   40DPPC   C13 1963   3.006   6.453   2.216
   40DPPC   O14 1964   2.900   6.365   2.176
   40DPPC   C15 1965   2.925   6.232   2.158
   40DPPC   O16 1966   3.034   6.175   2.148
   40DPPC   C17 1967   2.793   6.156   2.153
   40DPPC   C18 1968   2.729   6.155   2.292
   40DPPC   C19 1969   2.594   6.084   2.289
   40DPPC   C20 1970   2.547   6.065   2.433
   40DPPC   C21 1971   2.536   6.190   2.521
   40DPPC   C22 1972   2.489   6.149   2.661
   40DPPC   C23 1973   2.488   6.263   2.763
   40DPPC   C24 1974   2.429   6.214   2.895
   40DPPC   C25 1975   2.421   6.334   2.990
   40DPPC   C26 1976   2.314   6.428   2.934
   40DPPC   C27 1977   2.271   6.507   3.058
   40DPPC   C28 1978   2.198   6.421   3.160
   40DPPC   C29 1979   2.250   6.415   3.304
   40DPPC   C30 1980   2.193   6.316   3.405
   40DPPC   C31 1981   2.217   6.355   3.551
   40DPPC   C32 1982   2.958   6.584   2.278
   40DPPC   O33 1983   3.031   6.613   2.398
   40DPPC   C34 1984   3.017   6.743   2.436
   40DPPC   O35 1985   2.985   6.837   2.364
   40DPPC   C36 1986   3.062   6.774   2.579
   40DPPC   C37 1987   3.022   6.914   2.627
   40DPPC   C38 1988   3.056   6.926   2.776
   40DPPC   C39 1989   2.925   6.952   2.851
   40DPPC   C40 1990   2.948   6.967   3.002
   40DPPC   C41 1991   2.802   6.997   3.037
   40DPPC   C42 1992   2.789   7.054   3.179
   40DPPC   C43 1993   2.861   6.958   3.274
   40DPPC   C44 1994   2.855   7.021   3.413
   40DPPC   C45 1995   2.711   7.062   3.447
   40DPPC   C46 1996   2.695   7.112   3.591
   40DPPC   C47 1997   2.559   7.179   3.608
   40DPPC   C48 1998   2.551   7.252   3.743
   40DPPC   C49 1999   2.415   7.316   3.771
   40DPPC   C50 2000   2.375   7.432   3.680
   41DPPC    C1 2001   3.148   5.712   1.890
   41DPPC    C2 2002   3.039   5.905   1.919
   41DPPC    C3 2003   3.267   5.905   1.843
   41DPPC    N4 2004   3.135   5.844   1.826
   41DPPC    C5 2005   3.104   5.832   1.682
   41DPPC    C6 2006   3.002   5.737   1.620
   41DPPC    O7 2007   2.864   5.760   1.651
   41DPPC    P8 2008   2.769   5.687   1.543
   41DPPC    O9 2009   2.851   5.665   1.422
   41DPPC   O10 2010   2.646   5.768   1.540
   41DPPC   O11 2011   2.743   5.544   1.613
   41DPPC   C12 2012   2.650   5.543   1.722
   41DPPC   C13 2013   2.580   5.410   1.749
   41DPPC   O14 2014   2.454   5.409   1.818
   41DPPC   C15 2015   2.335   5.462   1.778
   41DPPC   O16 2016   2.341   5.532   1.677
   41DPPC   C17 2017   2.230   5.472   1.889
   41DPPC   C18 2018   2.223   5.332   1.950
   41DPPC   C19 2019   2.113   5.323   2.055
   41DPPC   C20 2020   2.100   5.194   2.136
   41DPPC   C21 2021   1.965   5.208   2.206
   41DPPC   C22 2022   1.919   5.074   2.264
   41DPPC   C23 2023   1.794   5.106   2.347
   41DPPC   C24 2024   1.724   4.985   2.409
   41DPPC   C25 2025   1.612   5.021   2.507
   41DPPC   C26 2026   1.561   4.888   2.564
   41DPPC   C27 2027   1.470   4.930   2.679
   41DPPC   C28 2028   1.565   5.003   2.774
   41DPPC   C29 2029   1.493   5.038   2.904
   41DPPC   C30 2030   1.592   5.063   3.017
   41DPPC   C31 2031   1.522   5.066   3.153
   41DPPC   C32 2032   2.687   5.327   1.821
   41DPPC   O33 2033   2.765   5.408   1.910
   41DPPC   C34 2034   2.870   5.342   1.964
   41DPPC   O35 2035   2.913   5.230   1.937
   41DPPC   C36 2036   2.941   5.415   2.078
   41DPPC   C37 2037   2.923   5.319   2.196
   41DPPC   C38 2038   2.991   5.372   2.323
   41DPPC   C39 2039   2.970   5.287   2.449
   41DPPC   C40 2040   3.073   5.318   2.558
   41DPPC   C41 2041   3.025   5.222   2.668
   41DPPC   C42 2042   3.113   5.226   2.793
   41DPPC   C43 2043   3.237   5.138   2.781
   41DPPC   C44 2044   3.320   5.162   2.908
   41DPPC   C45 2045   3.432   5.058   2.906
   41DPPC   C46 2046   3.519   5.068   2.780
   41DPPC   C47 2047   3.620   4.953   2.785
   41DPPC   C48 2048   3.742   4.996   2.704
   41DPPC   C49 2049   3.823   5.110   2.767
   41DPPC   C50 2050   3.944   5.132   2.675
   42DPPC    C1 2051   1.991   4.451   1.913
   42DPPC    C2 2052   2.132   4.480   1.711
   42DPPC    C3 2053   2.133   4.283   1.831
   42DPPC    N4 2054   2.044   4.392   1.789
   42DPPC    C5 2055   1.939   4.336   1.702
   42DPPC    C6 2056   1.824   4.430   1.666
   42DPPC    O7 2057   1.852   4.531   1.568
   42DPPC    P8 2058   1.717   4.616   1.550
   42DPPC    O9 2059   1.600   4.527   1.534
   42DPPC   O10 2060   1.751   4.715   1.446
   42DPPC   O11 2061   1.730   4.682   1.697
   42DPPC   C12 2062   1.801   4.806   1.689
   42DPPC   C13 2063   1.840   4.857   1.827
   42DPPC   O14 2064   1.951   4.797   1.896
   42DPPC   C15 2065   2.078   4.828   1.861
   42DPPC   O16 2066   2.107   4.876   1.751
   42DPPC   C17 2067   2.182   4.791   1.967
   42DPPC   C18 2068   2.143   4.821   2.112
   42DPPC   C19 2069   2.056   4.707   2.164
   42DPPC   C20 2070   2.056   4.692   2.317
   42DPPC   C21 2071   1.984   4.560   2.345
   42DPPC   C22 2072   1.986   4.557   2.497
   42DPPC   C23 2073   1.935   4.429   2.562
   42DPPC   C24 2074   1.915   4.464   2.710
   42DPPC   C25 2075   1.871   4.340   2.787
   42DPPC   C26 2076   1.868   4.371   2.937
   42DPPC   C27 2077   1.826   4.258   3.032
   42DPPC   C28 2078   1.817   4.304   3.177
   42DPPC   C29 2079   1.954   4.354   3.224
   42DPPC   C30 2080   1.953   4.399   3.370
   42DPPC   C31 2081   1.897   4.541   3.370
   42DPPC   C32 2082   1.713   4.874   1.911
   42DPPC   O33 2083   1.646   4.998   1.886
   42DPPC   C34 2084   1.546   5.010   1.977
   42DPPC   O35 2085   1.497   4.911   2.031
   42DPPC   C36 2086   1.486   5.148   2.004
   42DPPC   C37 2087   1.426   5.162   2.144
   42DPPC   C38 2088   1.401   5.307   2.186
   42DPPC   C39 2089   1.274   5.360   2.118
   42DPPC   C40 2090   1.226   5.478   2.202
   42DPPC   C41 2091   1.090   5.443   2.264
   42DPPC   C42 2092   1.076   5.534   2.386
   42DPPC   C43 2093   0.964   5.494   2.483
   42DPPC   C44 2094   0.974   5.581   2.609
   42DPPC   C45 2095   0.891   5.513   2.719
   42DPPC   C46 2096   0.881   5.588   2.852
   42DPPC   C47 2097   0.771   5.529   2.940
   42DPPC   C48 2098   0.774   5.610   3.070
   42DPPC   C49 2099   0.658   5.594   3.168
   42DPPC   C50 2100   0.681   5.674   3.296
   43DPPC    C1 2101   1.728   6.462   1.712
   43DPPC    C2 2102   1.505   6.539   1.703
   43DPPC    C3 2103   1.688   6.663   1.805
   43DPPC    N4 2104   1.645   6.581   1.691
   43DPPC    C5 2105   1.699   6.639   1.567
   43DPPC    C6 2106   1.612   6.747   1.502
   43DPPC    O7 2107   1.582   6.851   1.595
   43DPPC    P8 2108   1.449   6.927   1.547
   43DPPC    O9 2109   1.388   6.869   1.425
   43DPPC   O10 2110   1.473   7.073   1.552
   43DPPC   O11 2111   1.368   6.876   1.676
   43DPPC   C12 2112   1.264   6.963   1.722
   43DPPC   C13 2113   1.193   6.905   1.844
   43DPPC   O14 2114   1.137   7.004   1.934
   43DPPC   C15 2115   1.003   7.001   1.953
   43DPPC   O16 2116   0.931   6.964   1.861
   43DPPC   C17 2117   0.960   7.087   2.072
   43DPPC   C18 2118   1.011   7.231   2.062
   43DPPC   C19 2119   0.955   7.310   2.180
   43DPPC   C20 2120   1.035   7.439   2.192
   43DPPC   C21 2121   0.963   7.529   2.292
   43DPPC   C22 2122   0.944   7.452   2.423
   43DPPC   C23 2123   0.863   7.530   2.526
   43DPPC   C24 2124   0.880   7.454   2.657
   43DPPC   C25 2125   1.026   7.448   2.702
   43DPPC   C26 2126   1.014   7.396   2.846
   43DPPC   C27 2127   1.142   7.337   2.905
   43DPPC   C28 2128   1.248   7.434   2.959
   43DPPC   C29 2129   1.359   7.364   3.038
   43DPPC   C30 2130   1.467   7.463   3.082
   43DPPC   C31 2131   1.569   7.400   3.177
   43DPPC   C32 2132   1.296   6.817   1.914
   43DPPC   O33 2133   1.267   6.724   2.019
   43DPPC   C34 2134   1.361   6.656   2.089
   43DPPC   O35 2135   1.464   6.613   2.036
   43DPPC   C36 2136   1.313   6.576   2.210
   43DPPC   C37 2137   1.315   6.657   2.340
   43DPPC   C38 2138   1.232   6.570   2.435
   43DPPC   C39 2139   1.181   6.657   2.550
   43DPPC   C40 2140   1.098   6.771   2.490
   43DPPC   C41 2141   1.027   6.858   2.593
   43DPPC   C42 2142   0.910   6.932   2.528
   43DPPC   C43 2143   0.814   6.995   2.629
   43DPPC   C44 2144   0.768   6.910   2.747
   43DPPC   C45 2145   0.683   7.008   2.828
   43DPPC   C46 2146   0.751   7.081   2.944
   43DPPC   C47 2147   0.648   7.152   3.032
   43DPPC   C48 2148   0.733   7.236   3.128
   43DPPC   C49 2149   0.650   7.354   3.176
   43DPPC   C50 2150   0.620   7.449   3.059
   44DPPC    C1 2151   4.936   1.652   1.523
   44DPPC    C2 2152   4.723   1.735   1.490
   44DPPC    C3 2153   4.810   1.737   1.704
   44DPPC    N4 2154   4.847   1.761   1.564
   44DPPC    C5 2155   4.916   1.890   1.548
   44DPPC    C6 2156   4.836   2.020   1.567
   44DPPC    O7 2157   4.785   2.046   1.698
   44DPPC    P8 2158   4.765   2.206   1.702
   44DPPC    O9 2159   4.656   2.226   1.801
   44DPPC   O10 2160   4.738   2.258   1.566
   44DPPC   O11 2161   4.912   2.244   1.756
   44DPPC   C12 2162   4.924   2.214   1.895
   44DPPC   C13 2163   5.072   2.185   1.918
   44DPPC   O14 2164   5.101   2.104   2.033
   44DPPC   C15 2165   5.222   2.042   2.036
   44DPPC   O16 2166   5.276   2.035   1.926
   44DPPC   C17 2167   5.262   1.958   2.158
   44DPPC   C18 2168   5.414   1.964   2.175
   44DPPC   C19 2169   5.441   1.927   2.321
   44DPPC   C20 2170   5.593   1.928   2.344
   44DPPC   C21 2171   5.635   1.910   2.490
   44DPPC   C22 2172   5.786   1.907   2.518
   44DPPC   C23 2173   5.816   1.888   2.667
   44DPPC   C24 2174   5.757   1.763   2.732
   44DPPC   C25 2175   5.772   1.763   2.884
   44DPPC   C26 2176   5.897   1.693   2.937
   44DPPC   C27 2177   5.881   1.660   3.085
   44DPPC   C28 2178   5.981   1.549   3.121
   44DPPC   C29 2179   5.982   1.508   3.268
   44DPPC   C30 2180   6.099   1.411   3.285
   44DPPC   C31 2181   6.112   1.362   3.429
   44DPPC   C32 2182   5.132   2.326   1.921
   44DPPC   O33 2183   5.067   2.417   2.010
   44DPPC   C34 2184   5.117   2.543   2.017
   44DPPC   O35 2185   5.208   2.584   1.945
   44DPPC   C36 2186   5.047   2.631   2.121
   44DPPC   C37 2187   5.126   2.756   2.159
   44DPPC   C38 2188   5.226   2.708   2.264
   44DPPC   C39 2189   5.154   2.690   2.398
   44DPPC   C40 2190   5.264   2.643   2.493
   44DPPC   C41 2191   5.198   2.609   2.627
   44DPPC   C42 2192   5.312   2.579   2.725
   44DPPC   C43 2193   5.254   2.507   2.847
   44DPPC   C44 2194   5.367   2.481   2.946
   44DPPC   C45 2195   5.314   2.425   3.078
   44DPPC   C46 2196   5.423   2.437   3.185
   44DPPC   C47 2197   5.378   2.351   3.304
   44DPPC   C48 2198   5.489   2.381   3.405
   44DPPC   C49 2199   5.618   2.346   3.331
   44DPPC   C50 2200   5.734   2.332   3.430
   45DPPC    C1 2201   0.267   4.279   1.407
   45DPPC    C2 2202   0.307   4.340   1.182
   45DPPC    C3 2203   0.486   4.314   1.336
   45DPPC    N4 2204   0.357   4.257   1.293
   45DPPC    C5 2205   0.374   4.114   1.262
   45DPPC    C6 2206   0.398   4.021   1.381
   45DPPC    O7 2207   0.535   3.985   1.404
   45DPPC    P8 2208   0.543   3.883   1.528
   45DPPC    O9 2209   0.689   3.860   1.526
   45DPPC   O10 2210   0.441   3.783   1.487
   45DPPC   O11 2211   0.492   3.956   1.661
   45DPPC   C12 2212   0.604   3.976   1.747
   45DPPC   C13 2213   0.581   4.076   1.861
   45DPPC   O14 2214   0.676   4.071   1.968
   45DPPC   C15 2215   0.773   4.167   1.965
   45DPPC   O16 2216   0.837   4.185   1.862
   45DPPC   C17 2217   0.825   4.189   2.107
   45DPPC   C18 2218   0.726   4.282   2.178
   45DPPC   C19 2219   0.755   4.303   2.327
   45DPPC   C20 2220   0.649   4.400   2.379
   45DPPC   C21 2221   0.685   4.495   2.493
   45DPPC   C22 2222   0.570   4.596   2.503
   45DPPC   C23 2223   0.435   4.532   2.533
   45DPPC   C24 2224   0.322   4.635   2.527
   45DPPC   C25 2225   0.216   4.560   2.608
   45DPPC   C26 2226   0.098   4.657   2.615
   45DPPC   C27 2227   0.001   4.604   2.721
   45DPPC   C28 2228   0.077   4.559   2.846
   45DPPC   C29 2229  -0.009   4.515   2.965
   45DPPC   C30 2230   0.073   4.480   3.089
   45DPPC   C31 2231  -0.001   4.388   3.186
   45DPPC   C32 2232   0.437   4.055   1.907
   45DPPC   O33 2233   0.399   4.164   1.992
   45DPPC   C34 2234   0.271   4.159   2.038
   45DPPC   O35 2235   0.190   4.082   1.987
   45DPPC   C36 2236   0.241   4.258   2.151
   45DPPC   C37 2237   0.144   4.195   2.251
   45DPPC   C38 2238   0.159   4.273   2.381
   45DPPC   C39 2239   0.065   4.214   2.487
   45DPPC   C40 2240   0.100   4.073   2.535
   45DPPC   C41 2241  -0.002   4.027   2.639
   45DPPC   C42 2242  -0.027   4.101   2.771
   45DPPC   C43 2243  -0.126   4.011   2.845
   45DPPC   C44 2244  -0.063   3.871   2.844
   45DPPC   C45 2245  -0.172   3.773   2.890
   45DPPC   C46 2246  -0.220   3.812   3.030
   45DPPC   C47 2247  -0.317   3.714   3.097
   45DPPC   C48 2248  -0.458   3.715   3.037
   45DPPC   C49 2249  -0.531   3.584   3.065
   45DPPC   C50 2250  -0.662   3.567   2.987
   46DPPC    C1 2251   9.385   1.702   1.303
   46DPPC    C2 2252   9.390   1.758   1.519
   46DPPC    C3 2253   9.597   1.748   1.381
   46DPPC    N4 2254   9.458   1.792   1.393
   46DPPC    C5 2255   9.444   1.932   1.351
   46DPPC    C6 2256   9.426   2.054   1.442
   46DPPC    O7 2257   9.309   2.062   1.524
   46DPPC    P8 2258   9.302   2.207   1.594
   46DPPC    O9 2259   9.166   2.235   1.647
   46DPPC   O10 2260   9.383   2.303   1.517
   46DPPC   O11 2261   9.397   2.179   1.721
   46DPPC   C12 2262   9.331   2.108   1.826
   46DPPC   C13 2263   9.436   2.090   1.935
   46DPPC   O14 2264   9.422   1.970   2.013
   46DPPC   C15 2265   9.475   1.857   1.959
   46DPPC   O16 2266   9.511   1.848   1.842
   46DPPC   C17 2267   9.475   1.737   2.054
   46DPPC   C18 2268   9.408   1.754   2.191
   46DPPC   C19 2269   9.357   1.623   2.251
   46DPPC   C20 2270   9.305   1.651   2.392
   46DPPC   C21 2271   9.260   1.520   2.458
   46DPPC   C22 2272   9.179   1.536   2.587
   46DPPC   C23 2273   9.139   1.396   2.633
   46DPPC   C24 2274   9.041   1.373   2.748
   46DPPC   C25 2275   9.088   1.431   2.882
   46DPPC   C26 2276   8.998   1.374   2.992
   46DPPC   C27 2277   8.977   1.483   3.096
   46DPPC   C28 2278   9.115   1.503   3.158
   46DPPC   C29 2279   9.099   1.581   3.289
   46DPPC   C30 2280   8.996   1.517   3.382
   46DPPC   C31 2281   8.991   1.589   3.518
   46DPPC   C32 2282   9.443   2.223   2.008
   46DPPC   O33 2283   9.325   2.261   2.079
   46DPPC   C34 2284   9.325   2.385   2.134
   46DPPC   O35 2285   9.424   2.454   2.107
   46DPPC   C36 2286   9.196   2.437   2.198
   46DPPC   C37 2287   9.183   2.381   2.339
   46DPPC   C38 2288   9.107   2.498   2.403
   46DPPC   C39 2289   9.084   2.466   2.550
   46DPPC   C40 2290   8.947   2.402   2.577
   46DPPC   C41 2291   8.926   2.352   2.720
   46DPPC   C42 2292   8.800   2.266   2.732
   46DPPC   C43 2293   8.767   2.221   2.874
   46DPPC   C44 2294   8.640   2.137   2.895
   46DPPC   C45 2295   8.609   2.121   3.044
   46DPPC   C46 2296   8.467   2.129   3.101
   46DPPC   C47 2297   8.454   2.113   3.253
   46DPPC   C48 2298   8.542   2.225   3.310
   46DPPC   C49 2299   8.529   2.218   3.462
   46DPPC   C50 2300   8.643   2.298   3.525
   47DPPC    C1 2301   7.710   2.002   1.336
   47DPPC    C2 2302   7.725   1.833   1.172
   47DPPC    C3 2303   7.776   1.786   1.400
   47DPPC    N4 2304   7.685   1.860   1.311
   47DPPC    C5 2305   7.543   1.822   1.311
   47DPPC    C6 2306   7.484   1.761   1.439
   47DPPC    O7 2307   7.475   1.837   1.560
   47DPPC    P8 2308   7.457   1.753   1.696
   47DPPC    O9 2309   7.409   1.623   1.644
   47DPPC   O10 2310   7.376   1.833   1.790
   47DPPC   O11 2311   7.614   1.750   1.727
   47DPPC   C12 2312   7.654   1.694   1.853
   47DPPC   C13 2313   7.785   1.748   1.911
   47DPPC   O14 2314   7.852   1.659   2.001
   47DPPC   C15 2315   7.913   1.549   1.949
   47DPPC   O16 2316   7.937   1.534   1.830
   47DPPC   C17 2317   7.939   1.436   2.049
   47DPPC   C18 2318   7.845   1.318   2.024
   47DPPC   C19 2319   7.842   1.237   2.154
   47DPPC   C20 2320   7.792   1.318   2.274
   47DPPC   C21 2321   7.654   1.377   2.244
   47DPPC   C22 2322   7.607   1.448   2.370
   47DPPC   C23 2323   7.679   1.580   2.396
   47DPPC   C24 2324   7.589   1.655   2.494
   47DPPC   C25 2325   7.451   1.692   2.438
   47DPPC   C26 2326   7.376   1.766   2.549
   47DPPC   C27 2327   7.380   1.703   2.689
   47DPPC   C28 2328   7.315   1.801   2.787
   47DPPC   C29 2329   7.298   1.727   2.920
   47DPPC   C30 2330   7.207   1.798   3.020
   47DPPC   C31 2331   7.191   1.731   3.157
   47DPPC   C32 2332   7.746   1.885   1.969
   47DPPC   O33 2333   7.617   1.890   2.031
   47DPPC   C34 2334   7.561   2.006   2.073
   47DPPC   O35 2335   7.613   2.118   2.065
   47DPPC   C36 2336   7.435   1.977   2.155
   47DPPC   C37 2337   7.418   2.044   2.291
   47DPPC   C38 2338   7.270   2.055   2.325
   47DPPC   C39 2339   7.242   2.129   2.456
   47DPPC   C40 2340   7.103   2.095   2.509
   47DPPC   C41 2341   7.072   1.948   2.537
   47DPPC   C42 2342   6.940   1.931   2.612
   47DPPC   C43 2343   6.951   1.790   2.672
   47DPPC   C44 2344   6.827   1.786   2.761
   47DPPC   C45 2345   6.819   1.675   2.866
   47DPPC   C46 2346   6.756   1.732   2.992
   47DPPC   C47 2347   6.792   1.641   3.110
   47DPPC   C48 2348   6.749   1.688   3.249
   47DPPC   C49 2349   6.831   1.812   3.283
   47DPPC   C50 2350   6.819   1.834   3.434
   48DPPC    C1 2351   8.631   0.477   0.906
   48DPPC    C2 2352   8.455   0.509   0.756
   48DPPC    C3 2353   8.540   0.287   0.785
   48DPPC    N4 2354   8.509   0.413   0.853
   48DPPC    C5 2355   8.425   0.398   0.972
   48DPPC    C6 2356   8.351   0.271   1.014
   48DPPC    O7 2357   8.317   0.290   1.152
   48DPPC    P8 2358   8.237   0.156   1.192
   48DPPC    O9 2359   8.299   0.039   1.125
   48DPPC   O10 2360   8.095   0.187   1.163
   48DPPC   O11 2361   8.267   0.167   1.350
   48DPPC   C12 2362   8.405   0.165   1.389
   48DPPC   C13 2363   8.407   0.209   1.536
   48DPPC   O14 2364   8.530   0.212   1.610
   48DPPC   C15 2365   8.616   0.317   1.599
   48DPPC   O16 2366   8.593   0.394   1.507
   48DPPC   C17 2367   8.751   0.325   1.671
   48DPPC   C18 2368   8.742   0.246   1.802
   48DPPC   C19 2369   8.881   0.253   1.865
   48DPPC   C20 2370   8.895   0.194   2.005
   48DPPC   C21 2371   8.808   0.267   2.108
   48DPPC   C22 2372   8.833   0.193   2.240
   48DPPC   C23 2373   8.733   0.078   2.224
   48DPPC   C24 2374   8.724  -0.016   2.343
   48DPPC   C25 2375   8.707   0.064   2.472
   48DPPC   C26 2376   8.691  -0.027   2.594
   48DPPC   C27 2377   8.545  -0.072   2.604
   48DPPC   C28 2378   8.497  -0.140   2.732
   48DPPC   C29 2379   8.370  -0.224   2.714
   48DPPC   C30 2380   8.309  -0.280   2.843
   48DPPC   C31 2381   8.208  -0.386   2.797
   48DPPC   C32 2382   8.297   0.128   1.603
   48DPPC   O33 2383   8.273   0.134   1.744
   48DPPC   C34 2384   8.206   0.242   1.789
   48DPPC   O35 2385   8.190   0.335   1.710
   48DPPC   C36 2386   8.161   0.248   1.935
   48DPPC   C37 2387   8.270   0.272   2.040
   48DPPC   C38 2388   8.202   0.285   2.176
   48DPPC   C39 2389   8.315   0.306   2.276
   48DPPC   C40 2390   8.265   0.299   2.421
   48DPPC   C41 2391   8.200   0.429   2.466
   48DPPC   C42 2392   8.166   0.414   2.614
   48DPPC   C43 2393   8.143   0.552   2.676
   48DPPC   C44 2394   8.091   0.555   2.820
   48DPPC   C45 2395   8.086   0.702   2.862
   48DPPC   C46 2396   8.063   0.729   3.011
   48DPPC   C47 2397   8.171   0.657   3.092
   48DPPC   C48 2398   8.177   0.686   3.243
   48DPPC   C49 2399   8.215   0.831   3.270
   48DPPC   C50 2400   8.223   0.848   3.422
   49DPPC    C1 2401   4.320   7.309   2.301
   49DPPC    C2 2402   4.253   7.320   2.539
   49DPPC    C3 2403   4.280   7.509   2.407
   49DPPC    N4 2404   4.233   7.370   2.402
   49DPPC    C5 2405   4.095   7.374   2.350
   49DPPC    C6 2406   4.025   7.241   2.320
   49DPPC    O7 2407   3.896   7.264   2.264
   49DPPC    P8 2408   3.849   7.170   2.142
   49DPPC    O9 2409   3.968   7.176   2.054
   49DPPC   O10 2410   3.724   7.240   2.104
   49DPPC   O11 2411   3.850   7.043   2.240
   49DPPC   C12 2412   3.724   6.975   2.237
   49DPPC   C13 2413   3.720   6.847   2.322
   49DPPC   O14 2414   3.604   6.764   2.311
   49DPPC   C15 2415   3.587   6.689   2.199
   49DPPC   O16 2416   3.665   6.690   2.104
   49DPPC   C17 2417   3.474   6.586   2.210
   49DPPC   C18 2418   3.533   6.464   2.281
   49DPPC   C19 2419   3.427   6.357   2.309
   49DPPC   C20 2420   3.325   6.399   2.415
   49DPPC   C21 2421   3.215   6.293   2.425
   49DPPC   C22 2422   3.120   6.320   2.542
   49DPPC   C23 2423   2.994   6.233   2.533
   49DPPC   C24 2424   3.014   6.081   2.535
   49DPPC   C25 2425   2.885   6.012   2.581
   49DPPC   C26 2426   2.897   5.861   2.561
   49DPPC   C27 2427   2.799   5.773   2.639
   49DPPC   C28 2428   2.829   5.624   2.619
   49DPPC   C29 2429   2.731   5.541   2.703
   49DPPC   C30 2430   2.744   5.540   2.855
   49DPPC   C31 2431   2.754   5.396   2.905
   49DPPC   C32 2432   3.763   6.899   2.459
   49DPPC   O33 2433   3.663   6.985   2.515
   49DPPC   C34 2434   3.690   7.034   2.639
   49DPPC   O35 2435   3.790   7.006   2.705
   49DPPC   C36 2436   3.564   7.093   2.703
   49DPPC   C37 2437   3.561   7.243   2.675
   49DPPC   C38 2438   3.449   7.307   2.758
   49DPPC   C39 2439   3.405   7.440   2.697
   49DPPC   C40 2440   3.297   7.506   2.784
   49DPPC   C41 2441   3.166   7.428   2.777
   49DPPC   C42 2442   3.052   7.479   2.866
   49DPPC   C43 2443   2.931   7.387   2.846
   49DPPC   C44 2444   2.803   7.460   2.887
   49DPPC   C45 2445   2.807   7.500   3.035
   49DPPC   C46 2446   2.671   7.557   3.076
   49DPPC   C47 2447   2.560   7.455   3.051
   49DPPC   C48 2448   2.424   7.511   3.095
   49DPPC   C49 2449   2.298   7.438   3.049
   49DPPC   C50 2450   2.301   7.420   2.898
   50DPPC    C1 2451   5.598   1.896   1.493
   50DPPC    C2 2452   5.647   1.710   1.332
   50DPPC    C3 2453   5.808   1.850   1.415
   50DPPC    N4 2454   5.683   1.783   1.455
   50DPPC    C5 2455   5.715   1.677   1.550
   50DPPC    C6 2456   5.608   1.619   1.643
   50DPPC    O7 2457   5.661   1.513   1.722
   50DPPC    P8 2458   5.538   1.412   1.745
   50DPPC    O9 2459   5.624   1.302   1.792
   50DPPC   O10 2460   5.470   1.401   1.613
   50DPPC   O11 2461   5.467   1.501   1.859
   50DPPC   C12 2462   5.524   1.465   1.985
   50DPPC   C13 2463   5.448   1.524   2.104
   50DPPC   O14 2464   5.497   1.482   2.232
   50DPPC   C15 2465   5.594   1.550   2.299
   50DPPC   O16 2466   5.669   1.628   2.240
   50DPPC   C17 2467   5.652   1.478   2.421
   50DPPC   C18 2468   5.559   1.500   2.540
   50DPPC   C19 2469   5.613   1.414   2.654
   50DPPC   C20 2470   5.529   1.422   2.781
   50DPPC   C21 2471   5.608   1.373   2.902
   50DPPC   C22 2472   5.549   1.402   3.040
   50DPPC   C23 2473   5.635   1.342   3.151
   50DPPC   C24 2474   5.569   1.380   3.284
   50DPPC   C25 2475   5.430   1.315   3.292
   50DPPC   C26 2476   5.346   1.382   3.400
   50DPPC   C27 2477   5.288   1.517   3.359
   50DPPC   C28 2478   5.198   1.594   3.456
   50DPPC   C29 2479   5.198   1.741   3.416
   50DPPC   C30 2480   5.125   1.818   3.526
   50DPPC   C31 2481   5.145   1.968   3.509
   50DPPC   C32 2482   5.298   1.511   2.078
   50DPPC   O33 2483   5.213   1.591   2.162
   50DPPC   C34 2484   5.186   1.549   2.288
   50DPPC   O35 2485   5.157   1.429   2.298
   50DPPC   C36 2486   5.104   1.657   2.359
   50DPPC   C37 2487   5.168   1.707   2.488
   50DPPC   C38 2488   5.101   1.829   2.551
   50DPPC   C39 2489   4.958   1.794   2.593
   50DPPC   C40 2490   4.908   1.933   2.634
   50DPPC   C41 2491   4.759   1.942   2.670
   50DPPC   C42 2492   4.727   1.836   2.776
   50DPPC   C43 2493   4.634   1.872   2.892
   50DPPC   C44 2494   4.617   1.749   2.980
   50DPPC   C45 2495   4.544   1.769   3.113
   50DPPC   C46 2496   4.525   1.632   3.179
   50DPPC   C47 2497   4.423   1.634   3.293
   50DPPC   C48 2498   4.490   1.708   3.409
   50DPPC   C49 2499   4.391   1.732   3.523
   50DPPC   C50 2500   4.445   1.803   3.647
   51DPPC    C1 2501   4.109   5.604   1.948
   51DPPC    C2 2502   4.308   5.720   1.942
   51DPPC    C3 2503   4.144   5.774   1.783
   51DPPC    N4 2504   4.163   5.738   1.925
   51DPPC    C5 2505   4.118   5.835   2.026
   51DPPC    C6 2506   3.972   5.878   2.011
   51DPPC    O7 2507   3.876   5.782   2.056
   51DPPC    P8 2508   3.730   5.830   2.007
   51DPPC    O9 2509   3.643   5.714   1.978
   51DPPC   O10 2510   3.732   5.929   1.897
   51DPPC   O11 2511   3.678   5.907   2.139
   51DPPC   C12 2512   3.688   5.818   2.250
   51DPPC   C13 2513   3.799   5.858   2.348
   51DPPC   O14 2514   3.833   5.751   2.437
   51DPPC   C15 2515   3.954   5.689   2.442
   51DPPC   O16 2516   4.043   5.697   2.358
   51DPPC   C17 2517   3.954   5.574   2.543
   51DPPC   C18 2518   3.995   5.629   2.680
   51DPPC   C19 2519   4.033   5.505   2.761
   51DPPC   C20 2520   4.067   5.569   2.896
   51DPPC   C21 2521   4.046   5.482   3.020
   51DPPC   C22 2522   4.125   5.352   3.000
   51DPPC   C23 2523   4.122   5.263   3.124
   51DPPC   C24 2524   4.183   5.124   3.100
   51DPPC   C25 2525   4.248   5.069   3.227
   51DPPC   C26 2526   4.306   4.928   3.219
   51DPPC   C27 2527   4.404   4.912   3.336
   51DPPC   C28 2528   4.483   4.783   3.312
   51DPPC   C29 2529   4.390   4.662   3.318
   51DPPC   C30 2530   4.471   4.534   3.299
   51DPPC   C31 2531   4.530   4.523   3.158
   51DPPC   C32 2532   3.772   5.997   2.406
   51DPPC   O33 2533   3.644   6.002   2.472
   51DPPC   C34 2534   3.607   6.115   2.537
   51DPPC   O35 2535   3.683   6.210   2.554
   51DPPC   C36 2536   3.468   6.120   2.602
   51DPPC   C37 2537   3.501   6.096   2.750
   51DPPC   C38 2538   3.379   6.073   2.839
   51DPPC   C39 2539   3.275   6.185   2.843
   51DPPC   C40 2540   3.165   6.173   2.949
   51DPPC   C41 2541   3.233   6.143   3.083
   51DPPC   C42 2542   3.135   6.157   3.199
   51DPPC   C43 2543   3.190   6.080   3.319
   51DPPC   C44 2544   3.148   6.139   3.454
   51DPPC   C45 2545   3.202   6.048   3.564
   51DPPC   C46 2546   3.139   6.098   3.694
   51DPPC   C47 2547   2.995   6.051   3.674
   51DPPC   C48 2548   2.909   6.109   3.787
   51DPPC   C49 2549   2.768   6.050   3.785
   51DPPC   C50 2550   2.705   6.109   3.911
   52DPPC    C1 2551   0.844   6.028   1.480
   52DPPC    C2 2552   0.898   6.102   1.690
   52DPPC    C3 2553   1.074   6.060   1.542
   52DPPC    N4 2554   0.939   6.117   1.550
   52DPPC    C5 2555   0.902   6.254   1.510
   52DPPC    C6 2556   0.990   6.366   1.564
   52DPPC    O7 2557   0.960   6.404   1.699
   52DPPC    P8 2558   1.068   6.492   1.779
   52DPPC    O9 2559   0.995   6.525   1.904
   52DPPC   O10 2560   1.118   6.597   1.687
   52DPPC   O11 2561   1.173   6.371   1.782
   52DPPC   C12 2562   1.148   6.293   1.900
   52DPPC   C13 2563   1.221   6.161   1.874
   52DPPC   O14 2564   1.164   6.062   1.960
   52DPPC   C15 2565   1.159   5.928   1.934
   52DPPC   O16 2566   1.210   5.881   1.832
   52DPPC   C17 2567   1.085   5.854   2.045
   52DPPC   C18 2568   0.940   5.816   2.012
   52DPPC   C19 2569   0.886   5.728   2.124
   52DPPC   C20 2570   0.737   5.708   2.100
   52DPPC   C21 2571   0.689   5.571   2.150
   52DPPC   C22 2572   0.681   5.565   2.303
   52DPPC   C23 2573   0.642   5.424   2.346
   52DPPC   C24 2574   0.613   5.408   2.495
   52DPPC   C25 2575   0.498   5.493   2.550
   52DPPC   C26 2576   0.468   5.475   2.698
   52DPPC   C27 2577   0.343   5.559   2.726
   52DPPC   C28 2578   0.297   5.546   2.871
   52DPPC   C29 2579   0.188   5.651   2.896
   52DPPC   C30 2580   0.161   5.643   3.046
   52DPPC   C31 2581   0.046   5.739   3.078
   52DPPC   C32 2582   1.371   6.185   1.889
   52DPPC   O33 2583   1.415   6.229   2.018
   52DPPC   C34 2584   1.545   6.246   2.052
   52DPPC   O35 2585   1.633   6.241   1.966
   52DPPC   C36 2586   1.566   6.309   2.190
   52DPPC   C37 2587   1.683   6.251   2.270
   52DPPC   C38 2588   1.676   6.099   2.254
   52DPPC   C39 2589   1.808   6.034   2.295
   52DPPC   C40 2590   1.827   6.062   2.444
   52DPPC   C41 2591   1.948   5.990   2.503
   52DPPC   C42 2592   2.018   6.079   2.606
   52DPPC   C43 2593   1.940   6.103   2.735
   52DPPC   C44 2594   1.899   5.968   2.794
   52DPPC   C45 2595   1.806   5.986   2.914
   52DPPC   C46 2596   1.769   5.847   2.965
   52DPPC   C47 2597   1.771   5.846   3.118
   52DPPC   C48 2598   1.903   5.905   3.167
   52DPPC   C49 2599   1.922   5.944   3.314
   52DPPC   C50 2600   2.070   5.982   3.318
   53DPPC    C1 2601   4.734   3.245   1.374
   53DPPC    C2 2602   4.517   3.155   1.445
   53DPPC    C3 2603   4.601   3.114   1.230
   53DPPC    N4 2604   4.641   3.131   1.370
   53DPPC    C5 2605   4.707   3.008   1.418
   53DPPC    C6 2606   4.756   3.006   1.563
   53DPPC    O7 2607   4.831   2.886   1.584
   53DPPC    P8 2608   4.788   2.842   1.733
   53DPPC    O9 2609   4.855   2.712   1.758
   53DPPC   O10 2610   4.643   2.865   1.749
   53DPPC   O11 2611   4.861   2.976   1.785
   53DPPC   C12 2612   4.959   2.960   1.888
   53DPPC   C13 2613   5.041   3.084   1.922
   53DPPC   O14 2614   5.158   3.058   2.000
   53DPPC   C15 2615   5.259   3.149   2.003
   53DPPC   O16 2616   5.255   3.251   1.934
   53DPPC   C17 2617   5.353   3.146   2.124
   53DPPC   C18 2618   5.272   3.122   2.251
   53DPPC   C19 2619   5.173   3.235   2.279
   53DPPC   C20 2620   5.081   3.207   2.398
   53DPPC   C21 2621   5.015   3.069   2.386
   53DPPC   C22 2622   4.963   3.020   2.521
   53DPPC   C23 2623   4.883   3.129   2.594
   53DPPC   C24 2624   4.869   3.096   2.743
   53DPPC   C25 2625   4.778   3.195   2.815
   53DPPC   C26 2626   4.783   3.157   2.964
   53DPPC   C27 2627   4.678   3.238   3.040
   53DPPC   C28 2628   4.686   3.199   3.188
   53DPPC   C29 2629   4.676   3.054   3.238
   53DPPC   C30 2630   4.672   3.052   3.391
   53DPPC   C31 2631   4.635   2.914   3.447
   53DPPC   C32 2632   4.946   3.197   1.963
   53DPPC   O33 2633   4.843   3.176   2.060
   53DPPC   C34 2634   4.761   3.283   2.079
   53DPPC   O35 2635   4.793   3.394   2.037
   53DPPC   C36 2636   4.632   3.248   2.153
   53DPPC   C37 2637   4.653   3.224   2.303
   53DPPC   C38 2638   4.513   3.199   2.359
   53DPPC   C39 2639   4.523   3.208   2.511
   53DPPC   C40 2640   4.400   3.160   2.588
   53DPPC   C41 2641   4.422   3.162   2.739
   53DPPC   C42 2642   4.288   3.137   2.807
   53DPPC   C43 2643   4.313   3.160   2.956
   53DPPC   C44 2644   4.190   3.106   3.029
   53DPPC   C45 2645   4.239   3.128   3.173
   53DPPC   C46 2646   4.133   3.095   3.278
   53DPPC   C47 2647   4.210   3.129   3.405
   53DPPC   C48 2648   4.149   3.075   3.535
   53DPPC   C49 2649   4.252   3.089   3.647
   53DPPC   C50 2650   4.200   3.017   3.772
   54DPPC    C1 2651   6.279   0.238   1.852
   54DPPC    C2 2652   6.214   0.168   1.634
   54DPPC    C3 2653   6.384   0.342   1.656
   54DPPC    N4 2654   6.327   0.219   1.714
   54DPPC    C5 2655   6.420   0.106   1.715
   54DPPC    C6 2656   6.559   0.124   1.776
   54DPPC    O7 2657   6.566   0.139   1.918
   54DPPC    P8 2658   6.696   0.220   1.968
   54DPPC    O9 2659   6.665   0.352   1.908
   54DPPC   O10 2660   6.805   0.129   1.928
   54DPPC   O11 2661   6.660   0.209   2.124
   54DPPC   C12 2662   6.537   0.280   2.143
   54DPPC   C13 2663   6.515   0.317   2.290
   54DPPC   O14 2664   6.591   0.436   2.320
   54DPPC   C15 2665   6.548   0.559   2.280
   54DPPC   O16 2666   6.443   0.573   2.218
   54DPPC   C17 2667   6.648   0.668   2.319
   54DPPC   C18 2668   6.709   0.648   2.457
   54DPPC   C19 2669   6.610   0.643   2.574
   54DPPC   C20 2670   6.660   0.616   2.716
   54DPPC   C21 2671   6.552   0.599   2.823
   54DPPC   C22 2672   6.606   0.574   2.963
   54DPPC   C23 2673   6.491   0.572   3.064
   54DPPC   C24 2674   6.525   0.550   3.211
   54DPPC   C25 2675   6.396   0.524   3.288
   54DPPC   C26 2676   6.300   0.643   3.276
   54DPPC   C27 2677   6.353   0.763   3.355
   54DPPC   C28 2678   6.234   0.851   3.394
   54DPPC   C29 2679   6.269   0.954   3.502
   54DPPC   C30 2680   6.168   0.959   3.617
   54DPPC   C31 2681   6.223   1.036   3.737
   54DPPC   C32 2682   6.549   0.187   2.363
   54DPPC   O33 2683   6.533   0.186   2.505
   54DPPC   C34 2684   6.557   0.064   2.560
   54DPPC   O35 2685   6.632  -0.007   2.494
   54DPPC   C36 2686   6.516   0.022   2.702
   54DPPC   C37 2687   6.533   0.130   2.809
   54DPPC   C38 2688   6.578   0.059   2.937
   54DPPC   C39 2689   6.583   0.169   3.044
   54DPPC   C40 2690   6.644   0.115   3.173
   54DPPC   C41 2691   6.655   0.223   3.280
   54DPPC   C42 2692   6.697   0.157   3.412
   54DPPC   C43 2693   6.706   0.258   3.527
   54DPPC   C44 2694   6.728   0.186   3.660
   54DPPC   C45 2695   6.740   0.281   3.780
   54DPPC   C46 2696   6.770   0.203   3.908
   54DPPC   C47 2697   6.753   0.291   4.032
   54DPPC   C48 2698   6.799   0.233   4.165
   54DPPC   C49 2699   6.948   0.199   4.173
   54DPPC   C50 2700   7.010   0.206   4.313
   55DPPC    C1 2701   0.306   7.117   1.799
   55DPPC    C2 2702   0.418   7.313   1.874
   55DPPC    C3 2703   0.451   7.221   1.649
   55DPPC    N4 2704   0.356   7.248   1.758
   55DPPC    C5 2705   0.242   7.334   1.720
   55DPPC    C6 2706   0.162   7.325   1.590
   55DPPC    O7 2707   0.065   7.429   1.578
   55DPPC    P8 2708  -0.012   7.422   1.437
   55DPPC    O9 2709   0.071   7.332   1.354
   55DPPC   O10 2710  -0.063   7.555   1.396
   55DPPC   O11 2711  -0.134   7.341   1.504
   55DPPC   C12 2712  -0.193   7.424   1.605
   55DPPC   C13 2713  -0.276   7.332   1.695
   55DPPC   O14 2714  -0.359   7.394   1.794
   55DPPC   C15 2715  -0.491   7.362   1.785
   55DPPC   O16 2716  -0.544   7.312   1.686
   55DPPC   C17 2717  -0.584   7.398   1.901
   55DPPC   C18 2718  -0.598   7.296   2.014
   55DPPC   C19 2719  -0.628   7.153   1.969
   55DPPC   C20 2720  -0.609   7.066   2.094
   55DPPC   C21 2721  -0.615   6.917   2.060
   55DPPC   C22 2722  -0.590   6.835   2.187
   55DPPC   C23 2723  -0.703   6.868   2.285
   55DPPC   C24 2724  -0.657   6.827   2.425
   55DPPC   C25 2725  -0.540   6.902   2.490
   55DPPC   C26 2726  -0.512   6.852   2.632
   55DPPC   C27 2727  -0.386   6.909   2.697
   55DPPC   C28 2728  -0.397   6.863   2.843
   55DPPC   C29 2729  -0.272   6.874   2.930
   55DPPC   C30 2730  -0.294   6.822   3.073
   55DPPC   C31 2731  -0.394   6.922   3.131
   55DPPC   C32 2732  -0.166   7.244   1.756
   55DPPC   O33 2733  -0.195   7.150   1.860
   55DPPC   C34 2734  -0.087   7.085   1.911
   55DPPC   O35 2735   0.023   7.084   1.857
   55DPPC   C36 2736  -0.116   6.978   2.017
   55DPPC   C37 2737  -0.169   7.040   2.146
   55DPPC   C38 2738  -0.082   7.148   2.211
   55DPPC   C39 2739  -0.143   7.171   2.350
   55DPPC   C40 2740  -0.290   7.214   2.343
   55DPPC   C41 2741  -0.331   7.226   2.490
   55DPPC   C42 2742  -0.226   7.297   2.575
   55DPPC   C43 2743  -0.262   7.315   2.723
   55DPPC   C44 2744  -0.150   7.392   2.792
   55DPPC   C45 2745  -0.156   7.379   2.944
   55DPPC   C46 2746  -0.139   7.232   2.984
   55DPPC   C47 2747  -0.124   7.217   3.135
   55DPPC   C48 2748  -0.253   7.275   3.194
   55DPPC   C49 2749  -0.256   7.233   3.341
   55DPPC   C50 2750  -0.155   7.308   3.428
   56DPPC    C1 2751   4.260   1.850   2.391
   56DPPC    C2 2752   4.311   1.796   2.614
   56DPPC    C3 2753   4.341   1.635   2.436
   56DPPC    N4 2754   4.355   1.776   2.475
   56DPPC    C5 2755   4.491   1.829   2.456
   56DPPC    C6 2756   4.568   1.796   2.328
   56DPPC    O7 2757   4.682   1.882   2.322
   56DPPC    P8 2758   4.736   1.893   2.171
   56DPPC    O9 2759   4.614   1.903   2.088
   56DPPC   O10 2760   4.842   1.793   2.147
   56DPPC   O11 2761   4.808   2.037   2.177
   56DPPC   C12 2762   4.878   2.053   2.300
   56DPPC   C13 2763   4.968   2.176   2.307
   56DPPC   O14 2764   5.063   2.167   2.414
   56DPPC   C15 2765   5.157   2.263   2.436
   56DPPC   O16 2766   5.172   2.355   2.356
   56DPPC   C17 2767   5.221   2.256   2.575
   56DPPC   C18 2768   5.371   2.232   2.553
   56DPPC   C19 2769   5.440   2.223   2.689
   56DPPC   C20 2770   5.418   2.099   2.775
   56DPPC   C21 2771   5.494   2.119   2.906
   56DPPC   C22 2772   5.484   2.006   3.008
   56DPPC   C23 2773   5.567   2.029   3.135
   56DPPC   C24 2774   5.593   1.902   3.215
   56DPPC   C25 2775   5.692   1.944   3.324
   56DPPC   C26 2776   5.709   1.814   3.403
   56DPPC   C27 2777   5.788   1.832   3.533
   56DPPC   C28 2778   5.704   1.917   3.628
   56DPPC   C29 2779   5.768   1.950   3.762
   56DPPC   C30 2780   5.658   1.978   3.865
   56DPPC   C31 2781   5.567   2.074   3.788
   56DPPC   C32 2782   4.878   2.300   2.295
   56DPPC   O33 2783   4.763   2.286   2.378
   56DPPC   C34 2784   4.662   2.375   2.357
   56DPPC   O35 2785   4.680   2.471   2.282
   56DPPC   C36 2786   4.519   2.337   2.397
   56DPPC   C37 2787   4.527   2.264   2.532
   56DPPC   C38 2788   4.394   2.210   2.583
   56DPPC   C39 2789   4.406   2.212   2.735
   56DPPC   C40 2790   4.447   2.354   2.776
   56DPPC   C41 2791   4.428   2.352   2.928
   56DPPC   C42 2792   4.535   2.264   2.992
   56DPPC   C43 2793   4.506   2.264   3.142
   56DPPC   C44 2794   4.587   2.166   3.227
   56DPPC   C45 2795   4.540   2.161   3.372
   56DPPC   C46 2796   4.544   2.303   3.430
   56DPPC   C47 2797   4.520   2.314   3.581
   56DPPC   C48 2798   4.503   2.458   3.629
   56DPPC   C49 2799   4.496   2.436   3.780
   56DPPC   C50 2800   4.618   2.367   3.841
   57DPPC    C1 2801   5.767   7.001   2.080
   57DPPC    C2 2802   5.576   6.883   2.135
   57DPPC    C3 2803   5.661   6.865   1.905
   57DPPC    N4 2804   5.694   6.877   2.048
   57DPPC    C5 2805   5.787   6.769   2.086
   57DPPC    C6 2806   5.738   6.624   2.074
   57DPPC    O7 2807   5.845   6.529   2.063
   57DPPC    P8 2808   5.786   6.388   2.014
   57DPPC    O9 2809   5.902   6.318   1.955
   57DPPC   O10 2810   5.665   6.416   1.935
   57DPPC   O11 2811   5.743   6.329   2.158
   57DPPC   C12 2812   5.867   6.301   2.224
   57DPPC   C13 2813   5.874   6.350   2.368
   57DPPC   O14 2814   6.001   6.304   2.419
   57DPPC   C15 2815   6.080   6.402   2.470
   57DPPC   O16 2816   6.023   6.511   2.465
   57DPPC   C17 2817   6.221   6.366   2.517
   57DPPC   C18 2818   6.226   6.319   2.662
   57DPPC   C19 2819   6.185   6.436   2.751
   57DPPC   C20 2820   6.164   6.398   2.898
   57DPPC   C21 2821   6.081   6.502   2.973
   57DPPC   C22 2822   6.067   6.455   3.118
   57DPPC   C23 2823   5.991   6.545   3.215
   57DPPC   C24 2824   6.020   6.508   3.361
   57DPPC   C25 2825   5.954   6.371   3.375
   57DPPC   C26 2826   5.971   6.304   3.512
   57DPPC   C27 2827   5.896   6.371   3.627
   57DPPC   C28 2828   5.908   6.291   3.756
   57DPPC   C29 2829   5.796   6.311   3.859
   57DPPC   C30 2830   5.816   6.260   4.002
   57DPPC   C31 2831   5.679   6.245   4.068
   57DPPC   C32 2832   5.756   6.293   2.447
   57DPPC   O33 2833   5.767   6.158   2.494
   57DPPC   C34 2834   5.649   6.096   2.519
   57DPPC   O35 2835   5.548   6.144   2.467
   57DPPC   C36 2836   5.655   5.959   2.586
   57DPPC   C37 2837   5.531   5.964   2.676
   57DPPC   C38 2838   5.545   5.868   2.794
   57DPPC   C39 2839   5.419   5.867   2.880
   57DPPC   C40 2840   5.439   5.789   3.009
   57DPPC   C41 2841   5.306   5.798   3.085
   57DPPC   C42 2842   5.317   5.742   3.227
   57DPPC   C43 2843   5.184   5.727   3.302
   57DPPC   C44 2844   5.203   5.644   3.429
   57DPPC   C45 2845   5.066   5.621   3.492
   57DPPC   C46 2846   5.090   5.539   3.619
   57DPPC   C47 2847   5.124   5.393   3.587
   57DPPC   C48 2848   5.227   5.344   3.689
   57DPPC   C49 2849   5.176   5.323   3.831
   57DPPC   C50 2850   5.290   5.322   3.934
   58DPPC    C1 2851   8.521   6.857   1.415
   58DPPC    C2 2852   8.544   7.070   1.309
   58DPPC    C3 2853   8.339   7.021   1.416
   58DPPC    N4 2854   8.484   7.000   1.423
   58DPPC    C5 2855   8.532   7.053   1.552
   58DPPC    C6 2856   8.470   7.181   1.607
   58DPPC    O7 2857   8.513   7.302   1.542
   58DPPC    P8 2858   8.390   7.405   1.543
   58DPPC    O9 2859   8.272   7.327   1.499
   58DPPC   O10 2860   8.427   7.530   1.474
   58DPPC   O11 2861   8.388   7.420   1.704
   58DPPC   C12 2862   8.474   7.527   1.744
   58DPPC   C13 2863   8.491   7.557   1.893
   58DPPC   O14 2864   8.593   7.657   1.900
   58DPPC   C15 2865   8.548   7.785   1.894
   58DPPC   O16 2866   8.432   7.820   1.872
   58DPPC   C17 2867   8.659   7.889   1.908
   58DPPC   C18 2868   8.623   7.975   2.029
   58DPPC   C19 2869   8.723   8.080   2.078
   58DPPC   C20 2870   8.688   8.139   2.214
   58DPPC   C21 2871   8.690   8.033   2.325
   58DPPC   C22 2872   8.667   8.092   2.464
   58DPPC   C23 2873   8.632   7.976   2.557
   58DPPC   C24 2874   8.648   8.008   2.706
   58DPPC   C25 2875   8.572   7.908   2.792
   58DPPC   C26 2876   8.559   7.955   2.937
   58DPPC   C27 2877   8.493   7.850   3.027
   58DPPC   C28 2878   8.515   7.868   3.177
   58DPPC   C29 2879   8.661   7.835   3.209
   58DPPC   C30 2880   8.683   7.828   3.360
   58DPPC   C31 2881   8.833   7.837   3.387
   58DPPC   C32 2882   8.526   7.422   1.955
   58DPPC   O33 2883   8.496   7.413   2.095
   58DPPC   C34 2884   8.495   7.285   2.138
   58DPPC   O35 2885   8.505   7.195   2.055
   58DPPC   C36 2886   8.498   7.267   2.290
   58DPPC   C37 2887   8.644   7.243   2.332
   58DPPC   C38 2888   8.641   7.235   2.485
   58DPPC   C39 2889   8.779   7.197   2.541
   58DPPC   C40 2890   8.803   7.254   2.681
   58DPPC   C41 2891   8.700   7.205   2.782
   58DPPC   C42 2892   8.774   7.217   2.915
   58DPPC   C43 2893   8.716   7.103   2.998
   58DPPC   C44 2894   8.760   6.966   2.946
   58DPPC   C45 2895   8.695   6.858   3.032
   58DPPC   C46 2896   8.708   6.867   3.184
   58DPPC   C47 2897   8.638   6.756   3.263
   58DPPC   C48 2898   8.694   6.734   3.404
   58DPPC   C49 2899   8.640   6.607   3.470
   58DPPC   C50 2900   8.699   6.586   3.610
   59DPPC    C1 2901   0.972   5.270   1.923
   59DPPC    C2 2902   0.798   5.102   1.936
   59DPPC    C3 2903   0.773   5.302   1.810
   59DPPC    N4 2904   0.869   5.197   1.848
   59DPPC    C5 2905   0.933   5.131   1.734
   59DPPC    C6 2906   0.856   5.022   1.660
   59DPPC    O7 2907   0.716   5.040   1.637
   59DPPC    P8 2908   0.656   4.902   1.580
   59DPPC    O9 2909   0.764   4.803   1.558
   59DPPC   O10 2910   0.547   4.927   1.482
   59DPPC   O11 2911   0.579   4.849   1.711
   59DPPC   C12 2912   0.460   4.927   1.722
   59DPPC   C13 2913   0.398   4.945   1.861
   59DPPC   O14 2914   0.462   5.021   1.964
   59DPPC   C15 2915   0.382   5.122   2.006
   59DPPC   O16 2916   0.341   5.213   1.935
   59DPPC   C17 2917   0.423   5.161   2.149
   59DPPC   C18 2918   0.316   5.185   2.255
   59DPPC   C19 2919   0.243   5.053   2.281
   59DPPC   C20 2920   0.172   5.036   2.416
   59DPPC   C21 2921   0.286   5.053   2.516
   59DPPC   C22 2922   0.243   5.044   2.663
   59DPPC   C23 2923   0.363   5.101   2.738
   59DPPC   C24 2924   0.496   5.026   2.729
   59DPPC   C25 2925   0.607   5.122   2.773
   59DPPC   C26 2926   0.743   5.052   2.770
   59DPPC   C27 2927   0.735   4.923   2.853
   59DPPC   C28 2928   0.865   4.846   2.879
   59DPPC   C29 2929   0.917   4.804   2.742
   59DPPC   C30 2930   1.051   4.731   2.745
   59DPPC   C31 2931   1.078   4.659   2.612
   59DPPC   C32 2932   0.391   4.798   1.903
   59DPPC   O33 2933   0.283   4.772   1.993
   59DPPC   C34 2934   0.252   4.640   2.006
   59DPPC   O35 2935   0.296   4.563   1.920
   59DPPC   C36 2936   0.145   4.597   2.106
   59DPPC   C37 2937   0.085   4.722   2.170
   59DPPC   C38 2938  -0.053   4.688   2.227
   59DPPC   C39 2939  -0.127   4.817   2.262
   59DPPC   C40 2940  -0.253   4.803   2.348
   59DPPC   C41 2941  -0.310   4.942   2.373
   59DPPC   C42 2942  -0.431   4.939   2.466
   59DPPC   C43 2943  -0.384   4.881   2.599
   59DPPC   C44 2944  -0.498   4.863   2.699
   59DPPC   C45 2945  -0.443   4.773   2.810
   59DPPC   C46 2946  -0.334   4.843   2.891
   59DPPC   C47 2947  -0.252   4.742   2.973
   59DPPC   C48 2948  -0.353   4.709   3.083
   59DPPC   C49 2949  -0.401   4.829   3.166
   59DPPC   C50 2950  -0.490   4.768   3.274
   60DPPC    C1 2951   6.926   4.769   1.330
   60DPPC    C2 2952   6.716   4.676   1.417
   60DPPC    C3 2953   6.844   4.814   1.545
   60DPPC    N4 2954   6.803   4.794   1.405
   60DPPC    C5 2955   6.748   4.913   1.338
   60DPPC    C6 2956   6.625   4.977   1.403
   60DPPC    O7 2957   6.606   5.113   1.362
   60DPPC    P8 2958   6.550   5.205   1.482
   60DPPC    O9 2959   6.464   5.110   1.555
   60DPPC   O10 2960   6.510   5.326   1.407
   60DPPC   O11 2961   6.690   5.233   1.557
   60DPPC   C12 2962   6.704   5.169   1.684
   60DPPC   C13 2963   6.825   5.204   1.772
   60DPPC   O14 2964   6.837   5.113   1.882
   60DPPC   C15 2965   6.929   5.013   1.869
   60DPPC   O16 2966   6.993   5.001   1.765
   60DPPC   C17 2967   6.939   4.927   1.994
   60DPPC   C18 2968   6.852   4.803   1.973
   60DPPC   C19 2969   6.859   4.705   2.090
   60DPPC   C20 2970   6.753   4.597   2.069
   60DPPC   C21 2971   6.733   4.498   2.184
   60DPPC   C22 2972   6.672   4.573   2.302
   60DPPC   C23 2973   6.667   4.471   2.416
   60DPPC   C24 2974   6.626   4.536   2.548
   60DPPC   C25 2975   6.578   4.432   2.650
   60DPPC   C26 2976   6.565   4.487   2.793
   60DPPC   C27 2977   6.495   4.388   2.887
   60DPPC   C28 2978   6.564   4.252   2.870
   60DPPC   C29 2979   6.517   4.158   2.981
   60DPPC   C30 2980   6.546   4.009   2.963
   60DPPC   C31 2981   6.542   3.934   3.097
   60DPPC   C32 2982   6.815   5.352   1.813
   60DPPC   O33 2983   6.683   5.385   1.858
   60DPPC   C34 2984   6.670   5.516   1.891
   60DPPC   O35 2985   6.750   5.601   1.852
   60DPPC   C36 2986   6.548   5.555   1.975
   60DPPC   C37 2987   6.557   5.538   2.127
   60DPPC   C38 2988   6.424   5.592   2.180
   60DPPC   C39 2989   6.449   5.676   2.306
   60DPPC   C40 2990   6.313   5.725   2.354
   60DPPC   C41 2991   6.316   5.816   2.477
   60DPPC   C42 2992   6.171   5.833   2.520
   60DPPC   C43 2993   6.161   5.925   2.642
   60DPPC   C44 2994   6.016   5.932   2.691
   60DPPC   C45 2995   6.023   6.029   2.810
   60DPPC   C46 2996   6.114   5.979   2.922
   60DPPC   C47 2997   6.115   6.056   3.055
   60DPPC   C48 2998   6.197   5.977   3.157
   60DPPC   C49 2999   6.198   6.082   3.267
   60DPPC   C50 3000   6.259   6.029   3.397
   61DPPC    C1 3001   4.048   0.256   2.249
   61DPPC    C2 3002   4.081   0.149   2.057
   61DPPC    C3 3003   3.853   0.179   2.114
   61DPPC    N4 3004   3.985   0.244   2.117
   61DPPC    C5 3005   3.981   0.371   2.044
   61DPPC    C6 3006   3.890   0.483   2.094
   61DPPC    O7 3007   3.952   0.580   2.180
   61DPPC    P8 3008   3.840   0.691   2.208
   61DPPC    O9 3009   3.714   0.636   2.262
   61DPPC   O10 3010   3.855   0.802   2.112
   61DPPC   O11 3011   3.919   0.751   2.335
   61DPPC   C12 3012   3.939   0.642   2.426
   61DPPC   C13 3013   3.977   0.688   2.566
   61DPPC   O14 3014   4.015   0.579   2.652
   61DPPC   C15 3015   4.148   0.569   2.676
   61DPPC   O16 3016   4.219   0.609   2.584
   61DPPC   C17 3017   4.194   0.460   2.773
   61DPPC   C18 3018   4.110   0.332   2.784
   61DPPC   C19 3019   4.179   0.228   2.872
   61DPPC   C20 3020   4.315   0.171   2.831
   61DPPC   C21 3021   4.324   0.034   2.898
   61DPPC   C22 3022   4.450  -0.043   2.857
   61DPPC   C23 3023   4.577   0.037   2.886
   61DPPC   C24 3024   4.703  -0.036   2.838
   61DPPC   C25 3025   4.825   0.054   2.817
   61DPPC   C26 3026   4.964  -0.001   2.849
   61DPPC   C27 3027   5.070   0.033   2.744
   61DPPC   C28 3028   5.201  -0.041   2.769
   61DPPC   C29 3029   5.187  -0.191   2.796
   61DPPC   C30 3030   5.102  -0.274   2.700
   61DPPC   C31 3031   5.113  -0.419   2.749
   61DPPC   C32 3032   3.863   0.782   2.606
   61DPPC   O33 3033   3.893   0.866   2.718
   61DPPC   C34 3034   3.795   0.949   2.763
   61DPPC   O35 3035   3.695   0.964   2.692
   61DPPC   C36 3036   3.830   1.046   2.876
   61DPPC   C37 3037   3.794   0.987   3.012
   61DPPC   C38 3038   3.821   1.094   3.117
   61DPPC   C39 3039   3.793   1.043   3.259
   61DPPC   C40 3040   3.648   0.996   3.270
   61DPPC   C41 3041   3.642   0.871   3.359
   61DPPC   C42 3042   3.494   0.832   3.364
   61DPPC   C43 3043   3.491   0.718   3.466
   61DPPC   C44 3044   3.358   0.642   3.472
   61DPPC   C45 3045   3.377   0.535   3.579
   61DPPC   C46 3046   3.415   0.589   3.717
   61DPPC   C47 3047   3.316   0.685   3.784
   61DPPC   C48 3048   3.373   0.704   3.925
   61DPPC   C49 3049   3.265   0.772   4.009
   61DPPC   C50 3050   3.295   0.764   4.158
   62DPPC    C1 3051   7.848   4.382   1.137
   62DPPC    C2 3052   7.661   4.228   1.201
   62DPPC    C3 3053   7.787   4.347   1.358
   62DPPC    N4 3054   7.732   4.355   1.222
   62DPPC    C5 3055   7.650   4.475   1.198
   62DPPC    C6 3056   7.504   4.476   1.243
   62DPPC    O7 3057   7.498   4.498   1.384
   62DPPC    P8 3058   7.351   4.481   1.447
   62DPPC    O9 3059   7.362   4.375   1.550
   62DPPC   O10 3060   7.265   4.481   1.326
   62DPPC   O11 3061   7.345   4.630   1.508
   62DPPC   C12 3062   7.437   4.639   1.616
   62DPPC   C13 3063   7.397   4.755   1.709
   62DPPC   O14 3064   7.482   4.778   1.822
   62DPPC   C15 3065   7.474   4.903   1.875
   62DPPC   O16 3066   7.461   4.999   1.799
   62DPPC   C17 3067   7.528   4.914   2.018
   62DPPC   C18 3068   7.431   4.952   2.130
   62DPPC   C19 3069   7.314   4.853   2.136
   62DPPC   C20 3070   7.262   4.878   2.278
   62DPPC   C21 3071   7.116   4.838   2.302
   62DPPC   C22 3072   7.075   4.876   2.445
   62DPPC   C23 3073   6.938   4.824   2.487
   62DPPC   C24 3074   6.895   4.866   2.627
   62DPPC   C25 3075   6.751   4.838   2.668
   62DPPC   C26 3076   6.645   4.889   2.570
   62DPPC   C27 3077   6.501   4.862   2.616
   62DPPC   C28 3078   6.383   4.877   2.519
   62DPPC   C29 3079   6.250   4.854   2.590
   62DPPC   C30 3080   6.263   4.722   2.668
   62DPPC   C31 3081   6.126   4.690   2.728
   62DPPC   C32 3082   7.247   4.746   1.737
   62DPPC   O33 3083   7.225   4.620   1.802
   62DPPC   C34 3084   7.097   4.575   1.808
   62DPPC   O35 3085   7.016   4.610   1.722
   62DPPC   C36 3086   7.082   4.453   1.899
   62DPPC   C37 3087   7.177   4.456   2.019
   62DPPC   C38 3088   7.146   4.348   2.123
   62DPPC   C39 3089   7.232   4.367   2.248
   62DPPC   C40 3090   7.178   4.308   2.379
   62DPPC   C41 3091   7.038   4.362   2.408
   62DPPC   C42 3092   6.986   4.324   2.547
   62DPPC   C43 3093   7.086   4.362   2.657
   62DPPC   C44 3094   7.025   4.336   2.794
   62DPPC   C45 3095   6.989   4.187   2.791
   62DPPC   C46 3096   6.953   4.139   2.932
   62DPPC   C47 3097   6.925   3.991   2.959
   62DPPC   C48 3098   6.886   3.976   3.106
   62DPPC   C49 3099   6.970   4.050   3.210
   62DPPC   C50 3100   6.898   4.053   3.345
   63DPPC    C1 3101   7.864   8.423   1.056
   63DPPC    C2 3102   7.839   8.200   1.040
   63DPPC    C3 3103   8.033   8.274   1.149
   63DPPC    N4 3104   7.889   8.301   1.135
   63DPPC    C5 3105   7.805   8.289   1.255
   63DPPC    C6 3106   7.865   8.341   1.386
   63DPPC    O7 3107   7.875   8.481   1.414
   63DPPC    P8 3108   7.944   8.476   1.560
   63DPPC    O9 3109   7.979   8.617   1.583
   63DPPC   O10 3110   8.048   8.371   1.548
   63DPPC   O11 3111   7.821   8.419   1.647
   63DPPC   C12 3112   7.759   8.530   1.711
   63DPPC   C13 3113   7.635   8.496   1.794
   63DPPC   O14 3114   7.563   8.611   1.839
   63DPPC   C15 3115   7.451   8.639   1.767
   63DPPC   O16 3116   7.424   8.585   1.660
   63DPPC   C17 3117   7.362   8.749   1.825
   63DPPC   C18 3118   7.433   8.823   1.939
   63DPPC   C19 3119   7.329   8.895   2.024
   63DPPC   C20 3120   7.384   8.968   2.147
   63DPPC   C21 3121   7.289   9.010   2.259
   63DPPC   C22 3122   7.352   8.986   2.397
   63DPPC   C23 3123   7.255   9.050   2.496
   63DPPC   C24 3124   7.246   9.000   2.640
   63DPPC   C25 3125   7.140   9.084   2.712
   63DPPC   C26 3126   7.092   9.029   2.846
   63DPPC   C27 3127   7.199   9.034   2.955
   63DPPC   C28 3128   7.153   8.995   3.096
   63DPPC   C29 3129   7.114   8.849   3.118
   63DPPC   C30 3130   7.077   8.823   3.265
   63DPPC   C31 3131   7.192   8.737   3.318
   63DPPC   C32 3132   7.688   8.419   1.915
   63DPPC   O33 3133   7.804   8.477   1.976
   63DPPC   C34 3134   7.853   8.407   2.082
   63DPPC   O35 3135   7.784   8.323   2.140
   63DPPC   C36 3136   7.976   8.476   2.141
   63DPPC   C37 3137   7.958   8.526   2.285
   63DPPC   C38 3138   7.888   8.662   2.290
   63DPPC   C39 3139   7.864   8.701   2.436
   63DPPC   C40 3140   7.795   8.837   2.451
   63DPPC   C41 3141   7.780   8.879   2.597
   63DPPC   C42 3142   7.710   9.015   2.598
   63DPPC   C43 3143   7.672   9.063   2.738
   63DPPC   C44 3144   7.600   9.197   2.749
   63DPPC   C45 3145   7.622   9.269   2.882
   63DPPC   C46 3146   7.550   9.185   2.987
   63DPPC   C47 3147   7.558   9.254   3.124
   63DPPC   C48 3148   7.476   9.188   3.235
   63DPPC   C49 3149   7.487   9.267   3.365
   63DPPC   C50 3150   7.407   9.204   3.479
   64DPPC    C1 3151   3.473  -0.016   1.991
   64DPPC    C2 3152   3.394  -0.083   1.778
   64DPPC    C3 3153   3.270   0.087   1.899
   64DPPC    N4 3154   3.403   0.031   1.871
   64DPPC    C5 3155   3.498   0.119   1.801
   64DPPC    C6 3156   3.565   0.238   1.869
   64DPPC    O7 3157   3.473   0.333   1.922
   64DPPC    P8 3158   3.538   0.452   2.008
   64DPPC    O9 3159   3.429   0.540   2.054
   64DPPC   O10 3160   3.650   0.498   1.922
   64DPPC   O11 3161   3.594   0.367   2.132
   64DPPC   C12 3162   3.476   0.353   2.212
   64DPPC   C13 3163   3.499   0.302   2.354
   64DPPC   O14 3164   3.370   0.285   2.414
   64DPPC   C15 3165   3.288   0.182   2.379
   64DPPC   O16 3166   3.320   0.107   2.287
   64DPPC   C17 3167   3.154   0.175   2.451
   64DPPC   C18 3168   3.178   0.157   2.601
   64DPPC   C19 3169   3.216   0.291   2.664
   64DPPC   C20 3170   3.224   0.277   2.816
   64DPPC   C21 3171   3.095   0.221   2.877
   64DPPC   C22 3172   3.109   0.208   3.029
   64DPPC   C23 3173   3.237   0.138   3.076
   64DPPC   C24 3174   3.287   0.203   3.205
   64DPPC   C25 3175   3.413   0.146   3.269
   64DPPC   C26 3176   3.372   0.027   3.356
   64DPPC   C27 3177   3.499  -0.053   3.387
   64DPPC   C28 3178   3.450  -0.179   3.459
   64DPPC   C29 3179   3.567  -0.278   3.460
   64DPPC   C30 3180   3.596  -0.331   3.319
   64DPPC   C31 3181   3.678  -0.459   3.335
   64DPPC   C32 3182   3.589   0.409   2.417
   64DPPC   O33 3183   3.629   0.367   2.547
   64DPPC   C34 3184   3.722   0.267   2.547
   64DPPC   O35 3185   3.790   0.244   2.448
   64DPPC   C36 3186   3.756   0.203   2.682
   64DPPC   C37 3187   3.645   0.114   2.739
   64DPPC   C38 3188   3.655   0.129   2.891
   64DPPC   C39 3189   3.788   0.086   2.952
   64DPPC   C40 3190   3.793  -0.067   2.939
   64DPPC   C41 3191   3.935  -0.114   2.969
   64DPPC   C42 3192   3.976  -0.059   3.105
   64DPPC   C43 3193   4.095  -0.134   3.166
   64DPPC   C44 3194   4.045  -0.278   3.185
   64DPPC   C45 3195   4.156  -0.368   3.240
   64DPPC   C46 3196   4.097  -0.494   3.305
   64DPPC   C47 3197   4.212  -0.589   3.340
   64DPPC   C48 3198   4.150  -0.721   3.387
   64DPPC   C49 3199   4.264  -0.821   3.407
   64DPPC   C50 3200   4.335  -0.846   3.273
   65DPPC    C1 3201   2.436   5.044   5.708
   65DPPC    C2 3202   2.615   5.015   5.556
   65DPPC    C3 3203   2.600   4.876   5.752
   65DPPC    N4 3204   2.523   4.943   5.646
   65DPPC    C5 3205   2.441   4.836   5.588
   65DPPC    C6 3206   2.493   4.716   5.510
   65DPPC    O7 3207   2.400   4.607   5.500
   65DPPC    P8 3208   2.480   4.474   5.458
   65DPPC    O9 3209   2.364   4.383   5.452
   65DPPC   O10 3210   2.594   4.462   5.552
   65DPPC   O11 3211   2.540   4.519   5.315
   65DPPC   C12 3212   2.463   4.471   5.205
   65DPPC   C13 3213   2.523   4.518   5.073
   65DPPC   O14 3214   2.433   4.514   4.961
   65DPPC   C15 3215   2.339   4.610   4.938
   65DPPC   O16 3216   2.329   4.701   5.020
   65DPPC   C17 3217   2.285   4.622   4.796
   65DPPC   C18 3218   2.323   4.752   4.724
   65DPPC   C19 3219   2.474   4.775   4.711
   65DPPC   C20 3220   2.496   4.896   4.619
   65DPPC   C21 3221   2.643   4.907   4.577
   65DPPC   C22 3222   2.663   5.033   4.493
   65DPPC   C23 3223   2.552   5.026   4.387
   65DPPC   C24 3224   2.592   5.140   4.293
   65DPPC   C25 3225   2.729   5.107   4.233
   65DPPC   C26 3226   2.793   5.222   4.156
   65DPPC   C27 3227   2.937   5.181   4.121
   65DPPC   C28 3228   3.006   5.286   4.034
   65DPPC   C29 3229   3.149   5.236   4.011
   65DPPC   C30 3230   3.233   5.334   3.930
   65DPPC   C31 3231   3.372   5.271   3.919
   65DPPC   C32 3232   2.652   4.436   5.067
   65DPPC   O33 3233   2.649   4.294   5.080
   65DPPC   C34 3234   2.775   4.242   5.072
   65DPPC   O35 3235   2.876   4.310   5.086
   65DPPC   C36 3236   2.770   4.090   5.091
   65DPPC   C37 3237   2.707   3.993   4.991
   65DPPC   C38 3238   2.777   4.017   4.857
   65DPPC   C39 3239   2.722   3.930   4.744
   65DPPC   C40 3240   2.816   3.933   4.623
   65DPPC   C41 3241   2.777   3.865   4.491
   65DPPC   C42 3242   2.873   3.876   4.372
   65DPPC   C43 3243   2.861   4.015   4.308
   65DPPC   C44 3244   2.921   4.001   4.168
   65DPPC   C45 3245   2.877   4.122   4.086
   65DPPC   C46 3246   2.952   4.108   3.953
   65DPPC   C47 3247   2.876   4.038   3.840
   65DPPC   C48 3248   2.959   4.019   3.714
   65DPPC   C49 3249   2.880   3.933   3.616
   65DPPC   C50 3250   2.753   4.011   3.579
   66DPPC    C1 3251   8.161   1.271   1.487
   66DPPC    C2 3252   8.126   1.503   1.493
   66DPPC    C3 3253   8.215   1.401   1.682
   66DPPC    N4 3254   8.219   1.397   1.535
   66DPPC    C5 3255   8.342   1.428   1.461
   66DPPC    C6 3256   8.452   1.322   1.466
   66DPPC    O7 3257   8.566   1.375   1.398
   66DPPC    P8 3258   8.693   1.277   1.382
   66DPPC    O9 3259   8.817   1.329   1.321
   66DPPC   O10 3260   8.637   1.150   1.329
   66DPPC   O11 3261   8.713   1.258   1.540
   66DPPC   C12 3262   8.750   1.372   1.618
   66DPPC   C13 3263   8.705   1.346   1.762
   66DPPC   O14 3264   8.692   1.463   1.845
   66DPPC   C15 3265   8.576   1.533   1.827
   66DPPC   O16 3266   8.513   1.524   1.722
   66DPPC   C17 3267   8.532   1.629   1.938
   66DPPC   C18 3268   8.447   1.561   2.046
   66DPPC   C19 3269   8.396   1.641   2.165
   66DPPC   C20 3270   8.295   1.750   2.129
   66DPPC   C21 3271   8.197   1.781   2.242
   66DPPC   C22 3272   8.107   1.901   2.211
   66DPPC   C23 3273   7.987   1.897   2.307
   66DPPC   C24 3274   7.914   2.030   2.290
   66DPPC   C25 3275   7.785   2.044   2.370
   66DPPC   C26 3276   7.803   2.023   2.520
   66DPPC   C27 3277   7.686   2.042   2.616
   66DPPC   C28 3278   7.724   1.996   2.756
   66DPPC   C29 3279   7.603   2.015   2.849
   66DPPC   C30 3280   7.647   2.006   2.995
   66DPPC   C31 3281   7.536   2.029   3.098
   66DPPC   C32 3282   8.793   1.229   1.807
   66DPPC   O33 3283   8.767   1.175   1.936
   66DPPC   C34 3284   8.648   1.117   1.967
   66DPPC   O35 3285   8.547   1.142   1.902
   66DPPC   C36 3286   8.646   1.032   2.095
   66DPPC   C37 3287   8.680   1.112   2.221
   66DPPC   C38 3288   8.720   1.015   2.332
   66DPPC   C39 3289   8.746   1.079   2.468
   66DPPC   C40 3290   8.766   0.986   2.588
   66DPPC   C41 3291   8.893   0.900   2.580
   66DPPC   C42 3292   8.916   0.830   2.714
   66DPPC   C43 3293   8.933   0.917   2.839
   66DPPC   C44 3294   8.969   0.826   2.957
   66DPPC   C45 3295   8.958   0.910   3.084
   66DPPC   C46 3296   8.934   0.823   3.208
   66DPPC   C47 3297   9.055   0.730   3.219
   66DPPC   C48 3298   9.043   0.648   3.348
   66DPPC   C49 3299   9.154   0.547   3.378
   66DPPC   C50 3300   9.138   0.463   3.505
   67DPPC    C1 3301   4.921   2.950   6.028
   67DPPC    C2 3302   4.726   2.837   6.033
   67DPPC    C3 3303   4.739   3.009   5.878
   67DPPC    N4 3304   4.818   2.899   5.937
   67DPPC    C5 3305   4.874   2.800   5.844
   67DPPC    C6 3306   4.958   2.686   5.904
   67DPPC    O7 3307   5.049   2.624   5.814
   67DPPC    P8 3308   5.113   2.499   5.893
   67DPPC    O9 3309   5.060   2.476   6.030
   67DPPC   O10 3310   5.258   2.500   5.862
   67DPPC   O11 3311   5.045   2.382   5.806
   67DPPC   C12 3312   5.084   2.400   5.670
   67DPPC   C13 3313   5.030   2.292   5.576
   67DPPC   O14 3314   5.102   2.281   5.453
   67DPPC   C15 3315   5.209   2.197   5.454
   67DPPC   O16 3316   5.244   2.143   5.559
   67DPPC   C17 3317   5.293   2.181   5.327
   67DPPC   C18 3318   5.292   2.032   5.292
   67DPPC   C19 3319   5.362   2.029   5.156
   67DPPC   C20 3320   5.493   2.104   5.178
   67DPPC   C21 3321   5.577   2.104   5.051
   67DPPC   C22 3322   5.722   2.150   5.065
   67DPPC   C23 3323   5.801   2.141   4.934
   67DPPC   C24 3324   5.735   2.218   4.819
   67DPPC   C25 3325   5.822   2.221   4.694
   67DPPC   C26 3326   5.753   2.300   4.582
   67DPPC   C27 3327   5.831   2.279   4.452
   67DPPC   C28 3328   5.748   2.316   4.328
   67DPPC   C29 3329   5.814   2.286   4.194
   67DPPC   C30 3330   5.748   2.362   4.079
   67DPPC   C31 3331   5.824   2.324   3.952
   67DPPC   C32 3332   4.880   2.312   5.556
   67DPPC   O33 3333   4.832   2.427   5.486
   67DPPC   C34 3334   4.697   2.440   5.491
   67DPPC   O35 3335   4.634   2.413   5.593
   67DPPC   C36 3336   4.641   2.505   5.365
   67DPPC   C37 3337   4.643   2.658   5.376
   67DPPC   C38 3338   4.576   2.707   5.247
   67DPPC   C39 3339   4.619   2.661   5.108
   67DPPC   C40 3340   4.543   2.729   4.993
   67DPPC   C41 3341   4.604   2.693   4.858
   67DPPC   C42 3342   4.563   2.790   4.747
   67DPPC   C43 3343   4.597   2.935   4.780
   67DPPC   C44 3344   4.539   3.012   4.660
   67DPPC   C45 3345   4.594   2.958   4.528
   67DPPC   C46 3346   4.553   3.042   4.406
   67DPPC   C47 3347   4.618   2.993   4.276
   67DPPC   C48 3348   4.585   3.079   4.154
   67DPPC   C49 3349   4.644   2.999   4.038
   67DPPC   C50 3350   4.667   3.093   3.920
   68DPPC    C1 3351   0.726   3.966   1.144
   68DPPC    C2 3352   0.923   3.868   1.050
   68DPPC    C3 3353   0.965   4.026   1.196
   68DPPC    N4 3354   0.863   3.922   1.173
   68DPPC    C5 3355   0.866   3.824   1.282
   68DPPC    C6 3356   0.805   3.686   1.252
   68DPPC    O7 3357   0.823   3.589   1.355
   68DPPC    P8 3358   0.755   3.446   1.327
   68DPPC    O9 3359   0.849   3.334   1.349
   68DPPC   O10 3360   0.683   3.452   1.197
   68DPPC   O11 3361   0.666   3.473   1.458
   68DPPC   C12 3362   0.754   3.453   1.569
   68DPPC   C13 3363   0.719   3.549   1.683
   68DPPC   O14 3364   0.793   3.509   1.799
   68DPPC   C15 3365   0.903   3.578   1.840
   68DPPC   O16 3366   0.958   3.661   1.768
   68DPPC   C17 3367   0.945   3.542   1.983
   68DPPC   C18 3368   0.865   3.605   2.097
   68DPPC   C19 3369   0.847   3.752   2.061
   68DPPC   C20 3370   0.754   3.812   2.167
   68DPPC   C21 3371   0.820   3.792   2.303
   68DPPC   C22 3372   0.718   3.864   2.391
   68DPPC   C23 3373   0.748   3.858   2.541
   68DPPC   C24 3374   0.639   3.937   2.613
   68DPPC   C25 3375   0.630   4.087   2.582
   68DPPC   C26 3376   0.503   4.150   2.639
   68DPPC   C27 3377   0.500   4.121   2.790
   68DPPC   C28 3378   0.374   4.165   2.865
   68DPPC   C29 3379   0.369   4.144   3.016
   68DPPC   C30 3380   0.368   3.995   3.049
   68DPPC   C31 3381   0.350   3.965   3.198
   68DPPC   C32 3382   0.568   3.535   1.707
   68DPPC   O33 3383   0.512   3.641   1.785
   68DPPC   C34 3384   0.402   3.601   1.854
   68DPPC   O35 3385   0.334   3.510   1.809
   68DPPC   C36 3386   0.331   3.709   1.937
   68DPPC   C37 3387   0.330   3.676   2.087
   68DPPC   C38 3388   0.303   3.787   2.188
   68DPPC   C39 3389   0.155   3.826   2.189
   68DPPC   C40 3390   0.057   3.735   2.263
   68DPPC   C41 3391  -0.086   3.783   2.238
   68DPPC   C42 3392  -0.183   3.685   2.304
   68DPPC   C43 3393  -0.154   3.694   2.454
   68DPPC   C44 3394  -0.257   3.593   2.506
   68DPPC   C45 3395  -0.392   3.661   2.523
   68DPPC   C46 3396  -0.386   3.782   2.617
   68DPPC   C47 3397  -0.527   3.841   2.611
   68DPPC   C48 3398  -0.559   3.967   2.692
   68DPPC   C49 3399  -0.703   4.015   2.671
   68DPPC   C50 3400  -0.789   3.906   2.734
   69DPPC    C1 3401   5.532   2.537   6.391
   69DPPC    C2 3402   5.595   2.542   6.164
   69DPPC    C3 3403   5.538   2.333   6.269
   69DPPC    N4 3404   5.505   2.476   6.260
   69DPPC    C5 3405   5.366   2.509   6.225
   69DPPC    C6 3406   5.311   2.644   6.272
   69DPPC    O7 3407   5.360   2.764   6.210
   69DPPC    P8 3408   5.269   2.896   6.195
   69DPPC    O9 3409   5.354   3.003   6.253
   69DPPC   O10 3410   5.138   2.855   6.249
   69DPPC   O11 3411   5.276   2.877   6.036
   69DPPC   C12 3412   5.403   2.905   5.977
   69DPPC   C13 3413   5.383   2.872   5.829
   69DPPC   O14 3414   5.493   2.916   5.748
   69DPPC   C15 3415   5.521   3.041   5.701
   69DPPC   O16 3416   5.478   3.137   5.764
   69DPPC   C17 3417   5.639   3.056   5.606
   69DPPC   C18 3418   5.571   3.041   5.469
   69DPPC   C19 3419   5.678   3.045   5.359
   69DPPC   C20 3420   5.633   2.996   5.221
   69DPPC   C21 3421   5.749   3.011   5.122
   69DPPC   C22 3422   5.708   2.993   4.976
   69DPPC   C23 3423   5.830   3.041   4.898
   69DPPC   C24 3424   5.788   3.093   4.760
   69DPPC   C25 3425   5.917   3.154   4.707
   69DPPC   C26 3426   5.913   3.224   4.571
   69DPPC   C27 3427   5.868   3.128   4.461
   69DPPC   C28 3428   5.829   3.195   4.329
   69DPPC   C29 3429   5.794   3.085   4.230
   69DPPC   C30 3430   5.775   3.148   4.092
   69DPPC   C31 3431   5.740   3.045   3.984
   69DPPC   C32 3432   5.247   2.928   5.790
   69DPPC   O33 3433   5.216   2.887   5.656
   69DPPC   C34 3434   5.106   2.938   5.594
   69DPPC   O35 3435   5.028   3.014   5.650
   69DPPC   C36 3436   5.107   2.926   5.442
   69DPPC   C37 3437   5.047   2.792   5.399
   69DPPC   C38 3438   5.101   2.748   5.263
   69DPPC   C39 3439   5.044   2.613   5.218
   69DPPC   C40 3440   5.057   2.594   5.066
   69DPPC   C41 3441   5.069   2.446   5.030
   69DPPC   C42 3442   5.124   2.419   4.890
   69DPPC   C43 3443   5.177   2.277   4.867
   69DPPC   C44 3444   5.241   2.256   4.730
   69DPPC   C45 3445   5.300   2.115   4.734
   69DPPC   C46 3446   5.398   2.088   4.620
   69DPPC   C47 3447   5.327   2.116   4.487
   69DPPC   C48 3448   5.426   2.080   4.376
   69DPPC   C49 3449   5.362   2.103   4.239
   69DPPC   C50 3450   5.334   2.253   4.233
   70DPPC    C1 3451   2.744   0.025   5.298
   70DPPC    C2 3452   2.839  -0.086   5.104
   70DPPC    C3 3453   2.969   0.014   5.287
   70DPPC    N4 3454   2.851  -0.064   5.249
   70DPPC    C5 3455   2.829  -0.178   5.340
   70DPPC    C6 3456   2.937  -0.287   5.346
   70DPPC    O7 3457   2.983  -0.341   5.222
   70DPPC    P8 3458   3.038  -0.489   5.251
   70DPPC    O9 3459   2.923  -0.545   5.325
   70DPPC   O10 3460   3.162  -0.447   5.320
   70DPPC   O11 3461   3.043  -0.540   5.098
   70DPPC   C12 3462   2.914  -0.534   5.038
   70DPPC   C13 3463   2.933  -0.559   4.888
   70DPPC   O14 3464   2.954  -0.694   4.847
   70DPPC   C15 3465   2.861  -0.793   4.859
   70DPPC   O16 3466   2.748  -0.766   4.897
   70DPPC   C17 3467   2.897  -0.932   4.807
   70DPPC   C18 3468   2.922  -0.912   4.657
   70DPPC   C19 3469   2.924  -1.042   4.576
   70DPPC   C20 3470   2.980  -1.003   4.439
   70DPPC   C21 3471   3.122  -0.947   4.455
   70DPPC   C22 3472   3.169  -0.903   4.316
   70DPPC   C23 3473   3.320  -0.894   4.290
   70DPPC   C24 3474   3.355  -0.821   4.160
   70DPPC   C25 3475   3.498  -0.765   4.160
   70DPPC   C26 3476   3.511  -0.698   4.023
   70DPPC   C27 3477   3.658  -0.664   4.001
   70DPPC   C28 3478   3.691  -0.585   3.873
   70DPPC   C29 3479   3.839  -0.615   3.849
   70DPPC   C30 3480   3.924  -0.567   3.967
   70DPPC   C31 3481   4.071  -0.595   3.935
   70DPPC   C32 3482   3.045  -0.467   4.838
   70DPPC   O33 3483   3.001  -0.331   4.832
   70DPPC   C34 3484   3.096  -0.243   4.792
   70DPPC   O35 3485   3.208  -0.284   4.762
   70DPPC   C36 3486   3.051  -0.100   4.762
   70DPPC   C37 3487   3.122  -0.037   4.642
   70DPPC   C38 3488   3.049   0.091   4.600
   70DPPC   C39 3489   3.093   0.133   4.459
   70DPPC   C40 3490   3.016   0.036   4.368
   70DPPC   C41 3491   3.059   0.039   4.221
   70DPPC   C42 3492   3.009  -0.087   4.149
   70DPPC   C43 3493   2.857  -0.097   4.158
   70DPPC   C44 3494   2.799   0.017   4.075
   70DPPC   C45 3495   2.744  -0.026   3.939
   70DPPC   C46 3496   2.592  -0.045   3.928
   70DPPC   C47 3497   2.549  -0.107   3.795
   70DPPC   C48 3498   2.400  -0.138   3.777
   70DPPC   C49 3499   2.370  -0.225   3.655
   70DPPC   C50 3500   2.219  -0.242   3.638
   71DPPC    C1 3501   4.036   3.666   5.554
   71DPPC    C2 3502   4.071   3.755   5.779
   71DPPC    C3 3503   4.087   3.521   5.718
   71DPPC    N4 3504   4.116   3.659   5.677
   71DPPC    C5 3505   4.259   3.690   5.660
   71DPPC    C6 3506   4.346   3.697   5.785
   71DPPC    O7 3507   4.361   3.570   5.848
   71DPPC    P8 3508   4.461   3.571   5.974
   71DPPC    O9 3509   4.442   3.452   6.060
   71DPPC   O10 3510   4.459   3.705   6.037
   71DPPC   O11 3511   4.591   3.568   5.879
   71DPPC   C12 3512   4.621   3.435   5.835
   71DPPC   C13 3513   4.697   3.435   5.702
   71DPPC   O14 3514   4.838   3.459   5.702
   71DPPC   C15 3515   4.908   3.347   5.734
   71DPPC   O16 3516   4.871   3.280   5.830
   71DPPC   C17 3517   5.057   3.349   5.698
   71DPPC   C18 3518   5.073   3.327   5.548
   71DPPC   C19 3519   5.213   3.364   5.500
   71DPPC   C20 3520   5.235   3.316   5.356
   71DPPC   C21 3521   5.358   3.376   5.288
   71DPPC   C22 3522   5.334   3.341   5.141
   71DPPC   C23 3523   5.363   3.193   5.112
   71DPPC   C24 3524   5.356   3.171   4.961
   71DPPC   C25 3525   5.430   3.262   4.862
   71DPPC   C26 3526   5.422   3.200   4.723
   71DPPC   C27 3527   5.469   3.291   4.609
   71DPPC   C28 3528   5.429   3.226   4.476
   71DPPC   C29 3529   5.474   3.315   4.360
   71DPPC   C30 3530   5.429   3.260   4.225
   71DPPC   C31 3531   5.468   3.352   4.109
   71DPPC   C32 3532   4.615   3.522   5.606
   71DPPC   O33 3533   4.638   3.494   5.468
   71DPPC   C34 3534   4.559   3.563   5.381
   71DPPC   O35 3535   4.487   3.655   5.418
   71DPPC   C36 3536   4.560   3.527   5.233
   71DPPC   C37 3537   4.467   3.411   5.197
   71DPPC   C38 3538   4.444   3.370   5.052
   71DPPC   C39 3539   4.336   3.261   5.057
   71DPPC   C40 3540   4.279   3.235   4.918
   71DPPC   C41 3541   4.226   3.365   4.857
   71DPPC   C42 3542   4.208   3.344   4.707
   71DPPC   C43 3543   4.157   3.466   4.631
   71DPPC   C44 3544   4.153   3.428   4.483
   71DPPC   C45 3545   4.300   3.404   4.451
   71DPPC   C46 3546   4.327   3.342   4.314
   71DPPC   C47 3547   4.273   3.429   4.199
   71DPPC   C48 3548   4.336   3.391   4.065
   71DPPC   C49 3549   4.324   3.502   3.961
   71DPPC   C50 3550   4.180   3.528   3.916
   72DPPC    C1 3551   0.989   8.398   4.794
   72DPPC    C2 3552   1.147   8.542   4.885
   72DPPC    C3 3553   0.917   8.555   4.950
   72DPPC    N4 3554   1.028   8.463   4.920
   72DPPC    C5 3555   1.046   8.366   5.030
   72DPPC    C6 3556   1.136   8.244   5.014
   72DPPC    O7 3557   1.266   8.279   4.966
   72DPPC    P8 3558   1.373   8.158   4.957
   72DPPC    O9 3559   1.313   8.064   5.054
   72DPPC   O10 3560   1.508   8.217   4.971
   72DPPC   O11 3561   1.347   8.082   4.817
   72DPPC   C12 3562   1.328   8.190   4.725
   72DPPC   C13 3563   1.310   8.159   4.576
   72DPPC   O14 3564   1.326   8.278   4.498
   72DPPC   C15 3565   1.411   8.291   4.393
   72DPPC   O16 3566   1.507   8.217   4.369
   72DPPC   C17 3567   1.377   8.418   4.314
   72DPPC   C18 3568   1.400   8.393   4.165
   72DPPC   C19 3569   1.393   8.511   4.068
   72DPPC   C20 3570   1.389   8.457   3.924
   72DPPC   C21 3571   1.322   8.566   3.839
   72DPPC   C22 3572   1.357   8.555   3.691
   72DPPC   C23 3573   1.312   8.674   3.607
   72DPPC   C24 3574   1.339   8.648   3.459
   72DPPC   C25 3575   1.319   8.770   3.369
   72DPPC   C26 3576   1.325   8.738   3.220
   72DPPC   C27 3577   1.210   8.647   3.176
   72DPPC   C28 3578   1.080   8.722   3.205
   72DPPC   C29 3579   0.959   8.628   3.209
   72DPPC   C30 3580   0.841   8.719   3.243
   72DPPC   C31 3581   0.858   8.754   3.391
   72DPPC   C32 3582   1.181   8.078   4.564
   72DPPC   O33 3583   1.058   8.150   4.567
   72DPPC   C34 3584   0.956   8.072   4.523
   72DPPC   O35 3585   0.936   7.952   4.546
   72DPPC   C36 3586   0.830   8.147   4.480
   72DPPC   C37 3587   0.792   8.121   4.334
   72DPPC   C38 3588   0.672   8.201   4.285
   72DPPC   C39 3589   0.661   8.197   4.133
   72DPPC   C40 3590   0.644   8.049   4.096
   72DPPC   C41 3591   0.618   8.023   3.947
   72DPPC   C42 3592   0.476   8.066   3.911
   72DPPC   C43 3593   0.478   8.048   3.759
   72DPPC   C44 3594   0.360   8.121   3.696
   72DPPC   C45 3595   0.232   8.081   3.769
   72DPPC   C46 3596   0.117   8.150   3.696
   72DPPC   C47 3597  -0.017   8.095   3.745
   72DPPC   C48 3598  -0.115   8.163   3.648
   72DPPC   C49 3599  -0.259   8.126   3.685
   72DPPC   C50 3600  -0.273   7.975   3.669
   73DPPC    C1 3601   8.518   8.206   4.980
   73DPPC    C2 3602   8.429   8.091   4.783
   73DPPC    C3 3603   8.630   8.020   4.883
   73DPPC    N4 3604   8.498   8.077   4.912
   73DPPC    C5 3605   8.433   7.980   5.002
   73DPPC    C6 3606   8.309   8.016   5.085
   73DPPC    O7 3607   8.262   7.894   5.144
   73DPPC    P8 3608   8.111   7.884   5.198
   73DPPC    O9 3609   8.088   8.013   5.267
   73DPPC   O10 3610   8.097   7.751   5.262
   73DPPC   O11 3611   8.045   7.881   5.051
   73DPPC   C12 3612   8.073   7.752   4.997
   73DPPC   C13 3613   8.003   7.712   4.867
   73DPPC   O14 3614   8.048   7.785   4.752
   73DPPC   C15 3615   8.169   7.762   4.696
   73DPPC   O16 3616   8.259   7.715   4.766
   73DPPC   C17 3617   8.207   7.837   4.568
   73DPPC   C18 3618   8.242   7.738   4.457
   73DPPC   C19 3619   8.129   7.653   4.398
   73DPPC   C20 3620   8.198   7.554   4.304
   73DPPC   C21 3621   8.205   7.416   4.369
   73DPPC   C22 3622   8.263   7.313   4.272
   73DPPC   C23 3623   8.396   7.366   4.219
   73DPPC   C24 3624   8.445   7.278   4.104
   73DPPC   C25 3625   8.360   7.287   3.976
   73DPPC   C26 3626   8.433   7.238   3.851
   73DPPC   C27 3627   8.498   7.103   3.885
   73DPPC   C28 3628   8.567   7.066   3.753
   73DPPC   C29 3629   8.682   7.157   3.710
   73DPPC   C30 3630   8.740   7.124   3.572
   73DPPC   C31 3631   8.871   7.195   3.535
   73DPPC   C32 3632   7.853   7.721   4.892
   73DPPC   O33 3633   7.772   7.693   4.778
   73DPPC   C34 3634   7.781   7.566   4.731
   73DPPC   O35 3635   7.840   7.481   4.796
   73DPPC   C36 3636   7.719   7.534   4.595
   73DPPC   C37 3637   7.765   7.399   4.537
   73DPPC   C38 3638   7.692   7.360   4.409
   73DPPC   C39 3639   7.712   7.463   4.298
   73DPPC   C40 3640   7.657   7.413   4.164
   73DPPC   C41 3641   7.698   7.518   4.060
   73DPPC   C42 3642   7.689   7.460   3.918
   73DPPC   C43 3643   7.766   7.561   3.832
   73DPPC   C44 3644   7.825   7.501   3.704
   73DPPC   C45 3645   7.897   7.601   3.614
   73DPPC   C46 3646   7.805   7.719   3.583
   73DPPC   C47 3647   7.870   7.822   3.490
   73DPPC   C48 3648   7.983   7.896   3.561
   73DPPC   C49 3649   7.941   8.039   3.594
   73DPPC   C50 3650   8.072   8.107   3.634
   74DPPC    C1 3651   5.916   4.759   5.819
   74DPPC    C2 3652   5.711   4.868   5.728
   74DPPC    C3 3653   5.920   4.959   5.694
   74DPPC    N4 3654   5.852   4.830   5.708
   74DPPC    C5 3655   5.846   4.745   5.588
   74DPPC    C6 3656   5.968   4.733   5.496
   74DPPC    O7 3657   5.967   4.614   5.416
   74DPPC    P8 3658   6.125   4.597   5.394
   74DPPC    O9 3659   6.155   4.482   5.306
   74DPPC   O10 3660   6.199   4.614   5.522
   74DPPC   O11 3661   6.159   4.729   5.308
   74DPPC   C12 3662   6.267   4.695   5.221
   74DPPC   C13 3663   6.289   4.787   5.101
   74DPPC   O14 3664   6.420   4.787   5.043
   74DPPC   C15 3665   6.453   4.685   4.959
   74DPPC   O16 3666   6.388   4.581   4.968
   74DPPC   C17 3667   6.576   4.715   4.874
   74DPPC   C18 3668   6.538   4.719   4.726
   74DPPC   C19 3669   6.658   4.773   4.648
   74DPPC   C20 3670   6.614   4.779   4.501
   74DPPC   C21 3671   6.497   4.876   4.480
   74DPPC   C22 3672   6.420   4.841   4.352
   74DPPC   C23 3673   6.513   4.850   4.231
   74DPPC   C24 3674   6.431   4.840   4.103
   74DPPC   C25 3675   6.522   4.866   3.982
   74DPPC   C26 3676   6.444   4.832   3.855
   74DPPC   C27 3677   6.545   4.778   3.754
   74DPPC   C28 3678   6.484   4.710   3.631
   74DPPC   C29 3679   6.419   4.581   3.681
   74DPPC   C30 3680   6.506   4.486   3.764
   74DPPC   C31 3681   6.420   4.369   3.811
   74DPPC   C32 3682   6.261   4.926   5.159
   74DPPC   O33 3683   6.221   5.010   5.050
   74DPPC   C34 3684   6.232   5.144   5.068
   74DPPC   O35 3685   6.243   5.190   5.181
   74DPPC   C36 3686   6.227   5.242   4.951
   74DPPC   C37 3687   6.206   5.162   4.822
   74DPPC   C38 3688   6.245   5.253   4.705
   74DPPC   C39 3689   6.392   5.293   4.722
   74DPPC   C40 3690   6.444   5.371   4.601
   74DPPC   C41 3691   6.461   5.276   4.482
   74DPPC   C42 3692   6.536   5.349   4.371
   74DPPC   C43 3693   6.522   5.272   4.240
   74DPPC   C44 3694   6.603   5.331   4.125
   74DPPC   C45 3695   6.556   5.268   3.994
   74DPPC   C46 3696   6.657   5.297   3.882
   74DPPC   C47 3697   6.610   5.227   3.755
   74DPPC   C48 3698   6.726   5.228   3.655
   74DPPC   C49 3699   6.674   5.181   3.519
   74DPPC   C50 3700   6.555   5.253   3.455
   75DPPC    C1 3701   3.800   1.400   5.777
   75DPPC    C2 3702   3.774   1.461   5.539
   75DPPC    C3 3703   3.691   1.266   5.633
   75DPPC    N4 3704   3.711   1.409   5.661
   75DPPC    C5 3705   3.597   1.491   5.703
   75DPPC    C6 3706   3.502   1.565   5.609
   75DPPC    O7 3707   3.566   1.685   5.563
   75DPPC    P8 3708   3.430   1.769   5.545
   75DPPC    O9 3709   3.396   1.801   5.685
   75DPPC   O10 3710   3.350   1.690   5.449
   75DPPC   O11 3711   3.484   1.901   5.470
   75DPPC   C12 3712   3.438   1.910   5.336
   75DPPC   C13 3713   3.496   2.035   5.269
   75DPPC   O14 3714   3.463   2.048   5.130
   75DPPC   C15 3715   3.484   2.166   5.067
   75DPPC   O16 3716   3.517   2.269   5.125
   75DPPC   C17 3717   3.463   2.176   4.916
   75DPPC   C18 3718   3.582   2.230   4.836
   75DPPC   C19 3719   3.701   2.134   4.843
   75DPPC   C20 3720   3.833   2.206   4.819
   75DPPC   C21 3721   3.953   2.112   4.811
   75DPPC   C22 3722   4.072   2.207   4.794
   75DPPC   C23 3723   4.202   2.131   4.768
   75DPPC   C24 3724   4.313   2.231   4.735
   75DPPC   C25 3725   4.278   2.325   4.620
   75DPPC   C26 3726   4.391   2.382   4.535
   75DPPC   C27 3727   4.340   2.477   4.426
   75DPPC   C28 3728   4.443   2.528   4.325
   75DPPC   C29 3729   4.372   2.584   4.201
   75DPPC   C30 3730   4.472   2.655   4.110
   75DPPC   C31 3731   4.393   2.727   4.000
   75DPPC   C32 3732   3.646   2.023   5.300
   75DPPC   O33 3733   3.700   1.894   5.270
   75DPPC   C34 3734   3.835   1.879   5.267
   75DPPC   O35 3735   3.901   1.961   5.330
   75DPPC   C36 3736   3.874   1.740   5.216
   75DPPC   C37 3737   3.905   1.756   5.067
   75DPPC   C38 3738   3.954   1.628   4.999
   75DPPC   C39 3739   3.993   1.644   4.851
   75DPPC   C40 3740   3.885   1.676   4.748
   75DPPC   C41 3741   3.937   1.704   4.607
   75DPPC   C42 3742   3.815   1.739   4.521
   75DPPC   C43 3743   3.881   1.794   4.395
   75DPPC   C44 3744   3.785   1.820   4.278
   75DPPC   C45 3745   3.718   1.688   4.241
   75DPPC   C46 3746   3.630   1.699   4.116
   75DPPC   C47 3747   3.725   1.735   4.002
   75DPPC   C48 3748   3.645   1.766   3.876
   75DPPC   C49 3749   3.749   1.786   3.765
   75DPPC   C50 3750   3.678   1.852   3.647
   76DPPC    C1 3751   5.938  -0.051   5.324
   76DPPC    C2 3752   5.735   0.012   5.404
   76DPPC    C3 3753   5.869   0.181   5.300
   76DPPC    N4 3754   5.827   0.040   5.293
   76DPPC    C5 3755   5.772  -0.005   5.164
   76DPPC    C6 3756   5.644   0.070   5.129
   76DPPC    O7 3757   5.564   0.031   5.017
   76DPPC    P8 3758   5.456   0.150   4.999
   76DPPC    O9 3759   5.535   0.270   4.963
   76DPPC   O10 3760   5.377   0.145   5.123
   76DPPC   O11 3761   5.387   0.065   4.881
   76DPPC   C12 3762   5.433   0.109   4.753
   76DPPC   C13 3763   5.324   0.119   4.645
   76DPPC   O14 3764   5.251   0.241   4.629
   76DPPC   C15 3765   5.320   0.347   4.578
   76DPPC   O16 3766   5.443   0.344   4.587
   76DPPC   C17 3767   5.243   0.478   4.564
   76DPPC   C18 3768   5.224   0.555   4.695
   76DPPC   C19 3769   5.146   0.686   4.677
   76DPPC   C20 3770   5.018   0.663   4.596
   76DPPC   C21 3771   4.932   0.785   4.561
   76DPPC   C22 3772   4.827   0.751   4.456
   76DPPC   C23 3773   4.914   0.705   4.339
   76DPPC   C24 3774   4.837   0.695   4.207
   76DPPC   C25 3775   4.892   0.590   4.111
   76DPPC   C26 3776   4.845   0.597   3.965
   76DPPC   C27 3777   4.913   0.487   3.884
   76DPPC   C28 3778   5.065   0.509   3.881
   76DPPC   C29 3779   5.149   0.382   3.890
   76DPPC   C30 3780   5.129   0.296   3.765
   76DPPC   C31 3781   5.227   0.178   3.766
   76DPPC   C32 3782   5.262  -0.021   4.636
   76DPPC   O33 3783   5.363  -0.115   4.600
   76DPPC   C34 3784   5.326  -0.244   4.623
   76DPPC   O35 3785   5.243  -0.268   4.710
   76DPPC   C36 3786   5.418  -0.355   4.573
   76DPPC   C37 3787   5.438  -0.328   4.423
   76DPPC   C38 3788   5.582  -0.368   4.393
   76DPPC   C39 3789   5.616  -0.343   4.246
   76DPPC   C40 3790   5.710  -0.445   4.181
   76DPPC   C41 3791   5.631  -0.571   4.147
   76DPPC   C42 3792   5.709  -0.676   4.067
   76DPPC   C43 3793   5.625  -0.804   4.069
   76DPPC   C44 3794   5.501  -0.778   3.985
   76DPPC   C45 3795   5.446  -0.912   3.934
   76DPPC   C46 3796   5.330  -0.875   3.842
   76DPPC   C47 3797   5.375  -0.869   3.695
   76DPPC   C48 3798   5.424  -1.004   3.644
   76DPPC   C49 3799   5.511  -0.980   3.521
   76DPPC   C50 3800   5.528  -1.109   3.441
   77DPPC    C1 3801   9.352   5.992   4.807
   77DPPC    C2 3802   9.479   5.810   4.708
   77DPPC    C3 3803   9.445   5.818   4.941
   77DPPC    N4 3804   9.381   5.848   4.811
   77DPPC    C5 3805   9.266   5.760   4.784
   77DPPC    C6 3806   9.131   5.743   4.854
   77DPPC    O7 3807   9.151   5.674   4.977
   77DPPC    P8 3808   9.031   5.695   5.082
   77DPPC    O9 3809   8.949   5.813   5.048
   77DPPC   O10 3810   9.086   5.687   5.219
   77DPPC   O11 3811   8.949   5.558   5.055
   77DPPC   C12 3812   9.013   5.435   5.090
   77DPPC   C13 3813   8.928   5.313   5.052
   77DPPC   O14 3814   9.009   5.202   5.011
   77DPPC   C15 3815   9.026   5.093   5.091
   77DPPC   O16 3816   9.026   5.109   5.213
   77DPPC   C17 3817   9.064   4.956   5.035
   77DPPC   C18 3818   9.012   4.936   4.892
   77DPPC   C19 3819   9.100   4.832   4.824
   77DPPC   C20 3820   9.246   4.879   4.819
   77DPPC   C21 3821   9.336   4.757   4.797
   77DPPC   C22 3822   9.339   4.723   4.648
   77DPPC   C23 3823   9.401   4.841   4.573
   77DPPC   C24 3824   9.401   4.803   4.424
   77DPPC   C25 3825   9.448   4.919   4.337
   77DPPC   C26 3826   9.449   4.882   4.188
   77DPPC   C27 3827   9.518   4.994   4.110
   77DPPC   C28 3828   9.507   4.940   3.967
   77DPPC   C29 3829   9.560   5.037   3.862
   77DPPC   C30 3830   9.597   4.957   3.737
   77DPPC   C31 3831   9.474   4.928   3.650
   77DPPC   C32 3832   8.845   5.360   4.932
   77DPPC   O33 3833   8.777   5.255   4.862
   77DPPC   C34 3834   8.706   5.300   4.756
   77DPPC   O35 3835   8.729   5.411   4.709
   77DPPC   C36 3836   8.635   5.184   4.684
   77DPPC   C37 3837   8.559   5.219   4.556
   77DPPC   C38 3838   8.540   5.087   4.482
   77DPPC   C39 3839   8.557   5.126   4.335
   77DPPC   C40 3840   8.518   5.000   4.258
   77DPPC   C41 3841   8.586   4.865   4.284
   77DPPC   C42 3842   8.509   4.747   4.225
   77DPPC   C43 3843   8.574   4.612   4.256
   77DPPC   C44 3844   8.502   4.491   4.196
   77DPPC   C45 3845   8.549   4.347   4.216
   77DPPC   C46 3846   8.505   4.264   4.095
   77DPPC   C47 3847   8.557   4.326   3.965
   77DPPC   C48 3848   8.536   4.248   3.836
   77DPPC   C49 3849   8.604   4.314   3.716
   77DPPC   C50 3850   8.598   4.228   3.590
   78DPPC    C1 3851   1.095   5.252   5.298
   78DPPC    C2 3852   1.190   5.072   5.210
   78DPPC    C3 3853   1.245   5.303   5.135
   78DPPC    N4 3854   1.227   5.210   5.247
   78DPPC    C5 3855   1.318   5.234   5.360
   78DPPC    C6 3856   1.460   5.177   5.347
   78DPPC    O7 3857   1.473   5.035   5.349
   78DPPC    P8 3858   1.624   4.992   5.312
   78DPPC    O9 3859   1.656   4.865   5.381
   78DPPC   O10 3860   1.697   5.118   5.338
   78DPPC   O11 3861   1.593   4.987   5.154
   78DPPC   C12 3862   1.538   4.859   5.121
   78DPPC   C13 3863   1.454   4.846   4.994
   78DPPC   O14 3864   1.388   4.722   4.966
   78DPPC   C15 3865   1.276   4.685   5.033
   78DPPC   O16 3866   1.195   4.762   5.085
   78DPPC   C17 3867   1.225   4.551   4.980
   78DPPC   C18 3868   1.161   4.557   4.842
   78DPPC   C19 3869   1.109   4.417   4.811
   78DPPC   C20 3870   1.057   4.420   4.667
   78DPPC   C21 3871   1.180   4.453   4.581
   78DPPC   C22 3872   1.163   4.500   4.436
   78DPPC   C23 3873   1.300   4.500   4.368
   78DPPC   C24 3874   1.289   4.527   4.218
   78DPPC   C25 3875   1.208   4.421   4.143
   78DPPC   C26 3876   1.195   4.466   3.998
   78DPPC   C27 3877   1.344   4.477   3.964
   78DPPC   C28 3878   1.353   4.553   3.832
   78DPPC   C29 3879   1.484   4.528   3.756
   78DPPC   C30 3880   1.477   4.387   3.696
   78DPPC   C31 3881   1.606   4.350   3.621
   78DPPC   C32 3882   1.553   4.883   4.883
   78DPPC   O33 3883   1.496   4.900   4.753
   78DPPC   C34 3884   1.591   4.941   4.665
   78DPPC   O35 3885   1.707   4.907   4.684
   78DPPC   C36 3886   1.546   5.031   4.549
   78DPPC   C37 3887   1.437   4.961   4.468
   78DPPC   C38 3888   1.499   4.858   4.373
   78DPPC   C39 3889   1.578   4.949   4.278
   78DPPC   C40 3890   1.672   4.867   4.190
   78DPPC   C41 3891   1.605   4.784   4.080
   78DPPC   C42 3892   1.711   4.712   3.996
   78DPPC   C43 3893   1.794   4.821   3.928
   78DPPC   C44 3894   1.897   4.764   3.830
   78DPPC   C45 3895   1.937   4.869   3.727
   78DPPC   C46 3896   1.991   4.992   3.800
   78DPPC   C47 3897   2.038   5.106   3.710
   78DPPC   C48 3898   2.107   5.217   3.790
   78DPPC   C49 3899   2.253   5.180   3.820
   78DPPC   C50 3900   2.333   5.302   3.865
   79DPPC    C1 3901   0.109   3.525   6.119
   79DPPC    C2 3902   0.130   3.527   5.884
   79DPPC    C3 3903  -0.093   3.499   5.982
   79DPPC    N4 3904   0.040   3.561   5.995
   79DPPC    C5 3905   0.043   3.708   5.990
   79DPPC    C6 3906  -0.057   3.789   5.907
   79DPPC    O7 3907  -0.017   3.787   5.770
   79DPPC    P8 3908  -0.143   3.862   5.704
   79DPPC    O9 3909  -0.155   3.995   5.768
   79DPPC   O10 3910  -0.249   3.759   5.698
   79DPPC   O11 3911  -0.070   3.869   5.560
   79DPPC   C12 3912  -0.015   3.743   5.521
   79DPPC   C13 3913   0.033   3.745   5.376
   79DPPC   O14 3914   0.070   3.611   5.340
   79DPPC   C15 3915  -0.012   3.508   5.307
   79DPPC   O16 3916  -0.122   3.505   5.362
   79DPPC   C17 3917   0.042   3.393   5.223
   79DPPC   C18 3918   0.061   3.437   5.077
   79DPPC   C19 3919   0.071   3.312   4.989
   79DPPC   C20 3920   0.050   3.350   4.842
   79DPPC   C21 3921   0.063   3.226   4.754
   79DPPC   C22 3922   0.027   3.273   4.613
   79DPPC   C23 3923   0.009   3.157   4.514
   79DPPC   C24 3924  -0.041   3.207   4.379
   79DPPC   C25 3925  -0.060   3.094   4.278
   79DPPC   C26 3926  -0.060   3.160   4.140
   79DPPC   C27 3927  -0.085   3.063   4.025
   79DPPC   C28 3928  -0.078   3.149   3.899
   79DPPC   C29 3929  -0.118   3.064   3.778
   79DPPC   C30 3930  -0.029   2.942   3.759
   79DPPC   C31 3931  -0.061   2.872   3.626
   79DPPC   C32 3932   0.150   3.843   5.388
   79DPPC   O33 3933   0.193   3.900   5.264
   79DPPC   C34 3934   0.288   3.996   5.270
   79DPPC   O35 3935   0.317   4.037   5.382
   79DPPC   C36 3936   0.355   4.047   5.142
   79DPPC   C37 3937   0.266   4.053   5.017
   79DPPC   C38 3938   0.355   4.068   4.894
   79DPPC   C39 3939   0.264   4.050   4.773
   79DPPC   C40 3940   0.158   4.158   4.744
   79DPPC   C41 3941   0.064   4.114   4.632
   79DPPC   C42 3942   0.127   4.114   4.493
   79DPPC   C43 3943   0.022   4.056   4.397
   79DPPC   C44 3944   0.078   4.074   4.255
   79DPPC   C45 3945  -0.046   4.046   4.170
   79DPPC   C46 3946  -0.010   4.118   4.040
   79DPPC   C47 3947  -0.119   4.131   3.933
   79DPPC   C48 3948  -0.051   4.182   3.806
   79DPPC   C49 3949  -0.147   4.164   3.688
   79DPPC   C50 3950  -0.080   4.192   3.553
   80DPPC    C1 3951   0.612   4.317   5.715
   80DPPC    C2 3952   0.766   4.396   5.896
   80DPPC    C3 3953   0.638   4.202   5.922
   80DPPC    N4 3954   0.707   4.284   5.821
   80DPPC    C5 3955   0.812   4.205   5.755
   80DPPC    C6 3956   0.907   4.272   5.656
   80DPPC    O7 3957   1.025   4.193   5.637
   80DPPC    P8 3958   1.124   4.296   5.562
   80DPPC    O9 3959   1.259   4.246   5.595
   80DPPC   O10 3960   1.080   4.436   5.583
   80DPPC   O11 3961   1.063   4.236   5.425
   80DPPC   C12 3962   1.091   4.339   5.330
   80DPPC   C13 3963   1.031   4.298   5.195
   80DPPC   O14 3964   0.890   4.277   5.193
   80DPPC   C15 3965   0.802   4.379   5.174
   80DPPC   O16 3966   0.824   4.490   5.223
   80DPPC   C17 3967   0.666   4.329   5.128
   80DPPC   C18 3968   0.664   4.325   4.975
   80DPPC   C19 3969   0.698   4.452   4.897
   80DPPC   C20 3970   0.678   4.457   4.745
   80DPPC   C21 3971   0.723   4.588   4.680
   80DPPC   C22 3972   0.672   4.577   4.536
   80DPPC   C23 3973   0.790   4.539   4.445
   80DPPC   C24 3974   0.736   4.518   4.304
   80DPPC   C25 3975   0.858   4.465   4.228
   80DPPC   C26 3976   0.840   4.408   4.087
   80DPPC   C27 3977   0.800   4.507   3.978
   80DPPC   C28 3978   0.765   4.429   3.851
   80DPPC   C29 3979   0.749   4.511   3.723
   80DPPC   C30 3980   0.700   4.431   3.602
   80DPPC   C31 3981   0.694   4.509   3.471
   80DPPC   C32 3982   1.114   4.179   5.146
   80DPPC   O33 3983   1.229   4.216   5.068
   80DPPC   C34 3984   1.287   4.112   5.003
   80DPPC   O35 3985   1.239   4.001   5.024
   80DPPC   C36 3986   1.395   4.149   4.901
   80DPPC   C37 3987   1.381   4.055   4.781
   80DPPC   C38 3988   1.277   4.090   4.674
   80DPPC   C39 3989   1.262   3.980   4.569
   80DPPC   C40 3990   1.145   4.015   4.476
   80DPPC   C41 3991   1.116   3.899   4.381
   80DPPC   C42 3992   1.040   3.930   4.253
   80DPPC   C43 3993   1.077   4.036   4.149
   80DPPC   C44 3994   1.012   4.018   4.012
   80DPPC   C45 3995   1.069   4.084   3.886
   80DPPC   C46 3996   0.975   4.081   3.765
   80DPPC   C47 3997   1.056   4.028   3.646
   80DPPC   C48 3998   0.962   4.006   3.528
   80DPPC   C49 3999   1.035   3.936   3.414
   80DPPC   C50 4000   0.938   3.889   3.305
   81DPPC    C1 4001   5.965   4.114   5.400
   81DPPC    C2 4002   5.759   4.077   5.519
   81DPPC    C3 4003   5.934   4.188   5.623
   81DPPC    N4 4004   5.867   4.174   5.492
   81DPPC    C5 4005   5.811   4.295   5.431
   81DPPC    C6 4006   5.741   4.398   5.519
   81DPPC    O7 4007   5.642   4.347   5.610
   81DPPC    P8 4008   5.612   4.455   5.725
   81DPPC    O9 4009   5.749   4.503   5.754
   81DPPC   O10 4010   5.517   4.408   5.828
   81DPPC   O11 4011   5.543   4.575   5.642
   81DPPC   C12 4012   5.425   4.528   5.575
   81DPPC   C13 4013   5.341   4.642   5.517
   81DPPC   O14 4014   5.228   4.606   5.436
   81DPPC   C15 4015   5.109   4.593   5.499
   81DPPC   O16 4016   5.098   4.645   5.610
   81DPPC   C17 4017   4.983   4.543   5.428
   81DPPC   C18 4018   4.997   4.534   5.276
   81DPPC   C19 4019   4.870   4.488   5.206
   81DPPC   C20 4020   4.825   4.355   5.268
   81DPPC   C21 4021   4.696   4.303   5.202
   81DPPC   C22 4022   4.723   4.248   5.062
   81DPPC   C23 4023   4.586   4.238   4.995
   81DPPC   C24 4024   4.601   4.238   4.843
   81DPPC   C25 4025   4.461   4.203   4.793
   81DPPC   C26 4026   4.346   4.299   4.823
   81DPPC   C27 4027   4.218   4.228   4.778
   81DPPC   C28 4028   4.225   4.192   4.630
   81DPPC   C29 4029   4.137   4.072   4.592
   81DPPC   C30 4030   4.189   4.028   4.456
   81DPPC   C31 4031   4.108   3.924   4.378
   81DPPC   C32 4032   5.440   4.733   5.444
   81DPPC   O33 4033   5.527   4.686   5.340
   81DPPC   C34 4034   5.640   4.754   5.306
   81DPPC   O35 4035   5.665   4.865   5.352
   81DPPC   C36 4036   5.707   4.704   5.178
   81DPPC   C37 4037   5.681   4.556   5.146
   81DPPC   C38 4038   5.777   4.524   5.031
   81DPPC   C39 4039   5.775   4.375   4.996
   81DPPC   C40 4040   5.918   4.333   4.959
   81DPPC   C41 4041   5.955   4.186   4.938
   81DPPC   C42 4042   5.882   4.119   4.821
   81DPPC   C43 4043   5.923   4.174   4.684
   81DPPC   C44 4044   5.853   4.120   4.559
   81DPPC   C45 4045   5.887   4.170   4.419
   81DPPC   C46 4046   5.790   4.085   4.336
   81DPPC   C47 4047   5.774   4.137   4.193
   81DPPC   C48 4048   5.900   4.096   4.116
   81DPPC   C49 4049   5.897   4.154   3.975
   81DPPC   C50 4050   6.023   4.143   3.887
   82DPPC    C1 4051   9.218   5.560   5.498
   82DPPC    C2 4052   9.425   5.464   5.540
   82DPPC    C3 4053   9.240   5.381   5.643
   82DPPC    N4 4054   9.284   5.430   5.512
   82DPPC    C5 4055   9.259   5.350   5.391
   82DPPC    C6 4056   9.315   5.209   5.372
   82DPPC    O7 4057   9.456   5.217   5.352
   82DPPC    P8 4058   9.505   5.073   5.297
   82DPPC    O9 4059   9.436   4.971   5.379
   82DPPC   O10 4060   9.653   5.073   5.291
   82DPPC   O11 4061   9.443   5.088   5.149
   82DPPC   C12 4062   9.539   5.140   5.056
   82DPPC   C13 4063   9.497   5.109   4.912
   82DPPC   O14 4064   9.612   5.096   4.827
   82DPPC   C15 4065   9.674   4.976   4.812
   82DPPC   O16 4066   9.677   4.900   4.909
   82DPPC   C17 4067   9.804   4.983   4.732
   82DPPC   C18 4068   9.767   4.982   4.583
   82DPPC   C19 4069   9.887   4.996   4.490
   82DPPC   C20 4070   9.838   4.993   4.345
   82DPPC   C21 4071   9.964   4.997   4.259
   82DPPC   C22 4072   9.919   4.934   4.127
   82DPPC   C23 4073  10.012   4.988   4.019
   82DPPC   C24 4074  10.007   4.898   3.895
   82DPPC   C25 4075  10.100   4.954   3.787
   82DPPC   C26 4076  10.085   4.887   3.650
   82DPPC   C27 4077  10.174   4.953   3.543
   82DPPC   C28 4078  10.162   4.885   3.407
   82DPPC   C29 4079  10.209   4.971   3.290
   82DPPC   C30 4080  10.115   5.091   3.291
   82DPPC   C31 4081  10.149   5.184   3.174
   82DPPC   C32 4082   9.403   5.225   4.876
   82DPPC   O33 4083   9.309   5.192   4.774
   82DPPC   C34 4084   9.231   5.301   4.747
   82DPPC   O35 4085   9.258   5.414   4.786
   82DPPC   C36 4086   9.124   5.273   4.641
   82DPPC   C37 4087   9.183   5.278   4.500
   82DPPC   C38 4088   9.076   5.226   4.404
   82DPPC   C39 4089   9.084   5.074   4.408
   82DPPC   C40 4090   8.962   5.001   4.351
   82DPPC   C41 4091   8.918   5.049   4.213
   82DPPC   C42 4092   8.990   4.981   4.096
   82DPPC   C43 4093   8.922   5.027   3.966
   82DPPC   C44 4094   9.000   4.957   3.855
   82DPPC   C45 4095   8.952   4.986   3.713
   82DPPC   C46 4096   9.054   4.934   3.611
   82DPPC   C47 4097   9.125   4.800   3.631
   82DPPC   C48 4098   9.020   4.688   3.627
   82DPPC   C49 4099   9.078   4.547   3.620
   82DPPC   C50 4100   9.189   4.539   3.515
   83DPPC    C1 4101   7.631   5.156   5.860
   83DPPC    C2 4102   7.745   4.952   5.865
   83DPPC    C3 4103   7.519   4.952   5.880
   83DPPC    N4 4104   7.627   5.019   5.808
   83DPPC    C5 4105   7.624   5.028   5.661
   83DPPC    C6 4106   7.588   4.908   5.574
   83DPPC    O7 4107   7.692   4.810   5.568
   83DPPC    P8 4108   7.658   4.703   5.452
   83DPPC    O9 4109   7.512   4.682   5.458
   83DPPC   O10 4110   7.761   4.603   5.488
   83DPPC   O11 4111   7.700   4.785   5.320
   83DPPC   C12 4112   7.828   4.743   5.273
   83DPPC   C13 4113   7.927   4.849   5.224
   83DPPC   O14 4114   7.902   4.912   5.098
   83DPPC   C15 4115   7.961   5.033   5.077
   83DPPC   O16 4116   8.039   5.084   5.157
   83DPPC   C17 4117   7.959   5.081   4.932
   83DPPC   C18 4118   7.823   5.137   4.888
   83DPPC   C19 4119   7.798   5.164   4.740
   83DPPC   C20 4120   7.901   5.257   4.674
   83DPPC   C21 4121   7.907   5.248   4.521
   83DPPC   C22 4122   7.781   5.305   4.455
   83DPPC   C23 4123   7.810   5.313   4.305
   83DPPC   C24 4124   7.695   5.374   4.225
   83DPPC   C25 4125   7.723   5.363   4.075
   83DPPC   C26 4126   7.605   5.405   3.986
   83DPPC   C27 4127   7.630   5.386   3.836
   83DPPC   C28 4128   7.502   5.424   3.760
   83DPPC   C29 4129   7.521   5.416   3.608
   83DPPC   C30 4130   7.506   5.277   3.547
   83DPPC   C31 4131   7.538   5.269   3.398
   83DPPC   C32 4132   8.058   4.770   5.225
   83DPPC   O33 4133   8.059   4.651   5.145
   83DPPC   C34 4134   8.184   4.604   5.118
   83DPPC   O35 4135   8.287   4.660   5.153
   83DPPC   C36 4136   8.191   4.475   5.036
   83DPPC   C37 4137   8.311   4.468   4.941
   83DPPC   C38 4138   8.286   4.375   4.822
   83DPPC   C39 4139   8.419   4.349   4.751
   83DPPC   C40 4140   8.483   4.477   4.699
   83DPPC   C41 4141   8.610   4.428   4.629
   83DPPC   C42 4142   8.711   4.543   4.618
   83DPPC   C43 4143   8.825   4.514   4.521
   83DPPC   C44 4144   8.913   4.633   4.482
   83DPPC   C45 4145   9.048   4.580   4.435
   83DPPC   C46 4146   9.042   4.596   4.283
   83DPPC   C47 4147   9.170   4.548   4.213
   83DPPC   C48 4148   9.177   4.576   4.063
   83DPPC   C49 4149   9.320   4.540   4.022
   83DPPC   C50 4150   9.353   4.567   3.875
   84DPPC    C1 4151   0.894   7.101   4.626
   84DPPC    C2 4152   0.709   7.162   4.500
   84DPPC    C3 4153   0.761   6.928   4.527
   84DPPC    N4 4154   0.756   7.059   4.594
   84DPPC    C5 4155   0.670   7.071   4.712
   84DPPC    C6 4156   0.536   6.998   4.719
   84DPPC    O7 4157   0.422   7.042   4.644
   84DPPC    P8 4158   0.295   6.958   4.697
   84DPPC    O9 4159   0.276   6.980   4.842
   84DPPC   O10 4160   0.332   6.823   4.649
   84DPPC   O11 4161   0.175   7.025   4.614
   84DPPC   C12 4162   0.141   6.929   4.514
   84DPPC   C13 4163   0.021   6.982   4.435
   84DPPC   O14 4164  -0.025   6.890   4.335
   84DPPC   C15 4165  -0.080   6.769   4.364
   84DPPC   O16 4166  -0.042   6.705   4.462
   84DPPC   C17 4167  -0.161   6.710   4.248
   84DPPC   C18 4168  -0.109   6.765   4.115
   84DPPC   C19 4169  -0.216   6.742   4.008
   84DPPC   C20 4170  -0.338   6.812   4.069
   84DPPC   C21 4171  -0.463   6.769   3.992
   84DPPC   C22 4172  -0.581   6.782   4.087
   84DPPC   C23 4173  -0.700   6.707   4.026
   84DPPC   C24 4174  -0.832   6.752   4.090
   84DPPC   C25 4175  -0.956   6.676   4.044
   84DPPC   C26 4176  -1.085   6.718   4.114
   84DPPC   C27 4177  -1.206   6.631   4.080
   84DPPC   C28 4178  -1.324   6.700   4.149
   84DPPC   C29 4179  -1.460   6.631   4.134
   84DPPC   C30 4180  -1.550   6.706   4.232
   84DPPC   C31 4181  -1.701   6.685   4.218
   84DPPC   C32 4182   0.048   7.118   4.372
   84DPPC   O33 4183   0.117   7.129   4.248
   84DPPC   C34 4184   0.139   7.260   4.217
   84DPPC   O35 4185   0.086   7.353   4.277
   84DPPC   C36 4186   0.186   7.280   4.072
   84DPPC   C37 4187   0.329   7.228   4.056
   84DPPC   C38 4188   0.374   7.238   3.910
   84DPPC   C39 4189   0.280   7.156   3.821
   84DPPC   C40 4190   0.280   7.017   3.884
   84DPPC   C41 4191   0.203   6.923   3.793
   84DPPC   C42 4192   0.228   6.776   3.829
   84DPPC   C43 4193   0.379   6.749   3.820
   84DPPC   C44 4194   0.412   6.609   3.871
   84DPPC   C45 4195   0.561   6.607   3.909
   84DPPC   C46 4196   0.594   6.725   4.000
   84DPPC   C47 4197   0.733   6.698   4.058
   84DPPC   C48 4198   0.822   6.681   3.934
   84DPPC   C49 4199   0.951   6.762   3.939
   84DPPC   C50 4200   1.033   6.749   3.810
   85DPPC    C1 4201   8.340   7.349   4.752
   85DPPC    C2 4202   8.269   7.407   4.963
   85DPPC    C3 4203   8.428   7.234   4.925
   85DPPC    N4 4204   8.391   7.371   4.888
   85DPPC    C5 4205   8.492   7.476   4.873
   85DPPC    C6 4206   8.583   7.531   4.984
   85DPPC    O7 4207   8.696   7.449   5.014
   85DPPC    P8 4208   8.836   7.529   5.018
   85DPPC    O9 4209   8.929   7.432   5.078
   85DPPC   O10 4210   8.803   7.662   5.074
   85DPPC   O11 4211   8.850   7.527   4.857
   85DPPC   C12 4212   8.878   7.392   4.820
   85DPPC   C13 4213   8.876   7.363   4.670
   85DPPC   O14 4214   8.847   7.226   4.640
   85DPPC   C15 4215   8.722   7.180   4.615
   85DPPC   O16 4216   8.623   7.240   4.656
   85DPPC   C17 4217   8.715   7.051   4.532
   85DPPC   C18 4218   8.582   7.019   4.464
   85DPPC   C19 4219   8.512   6.912   4.548
   85DPPC   C20 4220   8.375   6.884   4.485
   85DPPC   C21 4221   8.282   6.999   4.523
   85DPPC   C22 4222   8.145   6.983   4.457
   85DPPC   C23 4223   8.024   7.060   4.510
   85DPPC   C24 4224   7.920   7.044   4.399
   85DPPC   C25 4225   7.965   7.084   4.258
   85DPPC   C26 4226   7.853   7.076   4.155
   85DPPC   C27 4227   7.894   7.134   4.020
   85DPPC   C28 4228   8.016   7.070   3.955
   85DPPC   C29 4229   8.029   7.102   3.806
   85DPPC   C30 4230   8.154   7.033   3.750
   85DPPC   C31 4231   8.173   7.071   3.603
   85DPPC   C32 4232   9.007   7.419   4.614
   85DPPC   O33 4233   9.014   7.458   4.477
   85DPPC   C34 4234   9.128   7.521   4.436
   85DPPC   O35 4235   9.214   7.564   4.513
   85DPPC   C36 4236   9.133   7.548   4.286
   85DPPC   C37 4237   9.275   7.574   4.236
   85DPPC   C38 4238   9.283   7.651   4.104
   85DPPC   C39 4239   9.428   7.662   4.054
   85DPPC   C40 4240   9.431   7.725   3.915
   85DPPC   C41 4241   9.541   7.664   3.829
   85DPPC   C42 4242   9.530   7.711   3.684
   85DPPC   C43 4243   9.633   7.624   3.612
   85DPPC   C44 4244   9.646   7.626   3.459
   85DPPC   C45 4245   9.760   7.535   3.413
   85DPPC   C46 4246   9.735   7.387   3.443
   85DPPC   C47 4247   9.826   7.281   3.382
   85DPPC   C48 4248   9.752   7.149   3.404
   85DPPC   C49 4249   9.790   7.036   3.308
   85DPPC   C50 4250   9.938   7.006   3.330
   86DPPC    C1 4251   7.212   7.226   5.551
   86DPPC    C2 4252   7.419   7.192   5.412
   86DPPC    C3 4253   7.388   7.355   5.577
   86DPPC    N4 4254   7.359   7.215   5.544
   86DPPC    C5 4255   7.421   7.131   5.647
   86DPPC    C6 4256   7.412   6.979   5.627
   86DPPC    O7 4257   7.279   6.928   5.611
   86DPPC    P8 4258   7.290   6.770   5.579
   86DPPC    O9 4259   7.189   6.726   5.677
   86DPPC   O10 4260   7.431   6.726   5.578
   86DPPC   O11 4261   7.222   6.791   5.435
   86DPPC   C12 4262   7.308   6.786   5.321
   86DPPC   C13 4263   7.231   6.766   5.191
   86DPPC   O14 4264   7.322   6.771   5.080
   86DPPC   C15 4265   7.286   6.699   4.970
   86DPPC   O16 4266   7.197   6.615   4.981
   86DPPC   C17 4267   7.401   6.691   4.869
   86DPPC   C18 4268   7.362   6.641   4.730
   86DPPC   C19 4269   7.459   6.692   4.623
   86DPPC   C20 4270   7.393   6.663   4.488
   86DPPC   C21 4271   7.478   6.724   4.376
   86DPPC   C22 4272   7.455   6.875   4.368
   86DPPC   C23 4273   7.350   6.938   4.277
   86DPPC   C24 4274   7.354   7.090   4.298
   86DPPC   C25 4275   7.265   7.171   4.204
   86DPPC   C26 4276   7.320   7.164   4.062
   86DPPC   C27 4277   7.232   7.259   3.981
   86DPPC   C28 4278   7.288   7.292   3.842
   86DPPC   C29 4279   7.335   7.180   3.751
   86DPPC   C30 4280   7.407   7.228   3.624
   86DPPC   C31 4281   7.302   7.291   3.532
   86DPPC   C32 4282   7.115   6.865   5.181
   86DPPC   O33 4283   7.147   7.003   5.166
   86DPPC   C34 4284   7.042   7.088   5.186
   86DPPC   O35 4285   6.928   7.046   5.206
   86DPPC   C36 4286   7.085   7.234   5.202
   86DPPC   C37 4287   7.076   7.306   5.067
   86DPPC   C38 4288   6.936   7.347   5.020
   86DPPC   C39 4289   6.941   7.393   4.875
   86DPPC   C40 4290   7.029   7.518   4.877
   86DPPC   C41 4291   7.117   7.516   4.751
   86DPPC   C42 4292   7.194   7.646   4.728
   86DPPC   C43 4293   7.291   7.667   4.845
   86DPPC   C44 4294   7.375   7.793   4.822
   86DPPC   C45 4295   7.270   7.905   4.823
   86DPPC   C46 4296   7.313   8.038   4.759
   86DPPC   C47 4297   7.211   8.152   4.764
   86DPPC   C48 4298   7.291   8.265   4.699
   86DPPC   C49 4299   7.201   8.389   4.703
   86DPPC   C50 4300   7.259   8.486   4.600
   87DPPC    C1 4301   5.237   4.550   5.964
   87DPPC    C2 4302   5.081   4.413   6.073
   87DPPC    C3 4303   5.023   4.573   5.913
   87DPPC    N4 4304   5.119   4.466   5.941
   87DPPC    C5 4305   5.133   4.372   5.829
   87DPPC    C6 4306   5.249   4.273   5.827
   87DPPC    O7 4307   5.214   4.166   5.915
   87DPPC    P8 4308   5.332   4.059   5.939
   87DPPC    O9 4309   5.265   3.927   5.952
   87DPPC   O10 4310   5.409   4.126   6.046
   87DPPC   O11 4311   5.400   4.071   5.794
   87DPPC   C12 4312   5.363   3.959   5.713
   87DPPC   C13 4313   5.295   3.995   5.581
   87DPPC   O14 4314   5.247   3.880   5.510
   87DPPC   C15 4315   5.116   3.846   5.526
   87DPPC   O16 4316   5.044   3.886   5.617
   87DPPC   C17 4317   5.065   3.729   5.442
   87DPPC   C18 4318   4.943   3.754   5.354
   87DPPC   C19 4319   4.902   3.641   5.259
   87DPPC   C20 4320   5.010   3.621   5.152
   87DPPC   C21 4321   4.963   3.511   5.056
   87DPPC   C22 4322   5.079   3.481   4.961
   87DPPC   C23 4323   5.124   3.612   4.897
   87DPPC   C24 4324   5.248   3.590   4.809
   87DPPC   C25 4325   5.220   3.537   4.668
   87DPPC   C26 4326   5.131   3.634   4.590
   87DPPC   C27 4327   5.090   3.567   4.458
   87DPPC   C28 4328   4.972   3.635   4.387
   87DPPC   C29 4329   4.942   3.551   4.262
   87DPPC   C30 4330   4.810   3.606   4.208
   87DPPC   C31 4331   4.779   3.547   4.071
   87DPPC   C32 4332   5.385   4.092   5.505
   87DPPC   O33 4333   5.302   4.173   5.422
   87DPPC   C34 4334   5.372   4.240   5.326
   87DPPC   O35 4335   5.495   4.237   5.322
   87DPPC   C36 4336   5.289   4.286   5.206
   87DPPC   C37 4337   5.272   4.175   5.101
   87DPPC   C38 4338   5.187   4.062   5.159
   87DPPC   C39 4339   5.138   3.962   5.054
   87DPPC   C40 4340   5.033   4.033   4.969
   87DPPC   C41 4341   4.977   3.945   4.857
   87DPPC   C42 4342   4.854   4.000   4.784
   87DPPC   C43 4343   4.842   3.940   4.644
   87DPPC   C44 4344   4.712   3.998   4.589
   87DPPC   C45 4345   4.703   3.957   4.442
   87DPPC   C46 4346   4.601   4.050   4.376
   87DPPC   C47 4347   4.588   4.039   4.224
   87DPPC   C48 4348   4.556   3.893   4.193
   87DPPC   C49 4349   4.527   3.891   4.043
   87DPPC   C50 4350   4.411   3.975   3.990
   88DPPC    C1 4351   7.978   6.601   5.437
   88DPPC    C2 4352   7.845   6.417   5.508
   88DPPC    C3 4353   7.869   6.618   5.642
   88DPPC    N4 4354   7.854   6.564   5.507
   88DPPC    C5 4355   7.736   6.607   5.429
   88DPPC    C6 4356   7.696   6.754   5.422
   88DPPC    O7 4357   7.796   6.839   5.365
   88DPPC    P8 4358   7.752   6.994   5.365
   88DPPC    O9 4359   7.871   7.069   5.320
   88DPPC   O10 4360   7.676   7.026   5.488
   88DPPC   O11 4361   7.648   6.984   5.242
   88DPPC   C12 4362   7.713   6.939   5.123
   88DPPC   C13 4363   7.639   6.905   4.993
   88DPPC   O14 4364   7.728   6.878   4.883
   88DPPC   C15 4365   7.780   6.755   4.859
   88DPPC   O16 4366   7.772   6.678   4.954
   88DPPC   C17 4367   7.833   6.718   4.720
   88DPPC   C18 4368   7.822   6.568   4.690
   88DPPC   C19 4369   7.928   6.541   4.582
   88DPPC   C20 4370   7.925   6.395   4.537
   88DPPC   C21 4371   8.036   6.381   4.433
   88DPPC   C22 4372   7.989   6.311   4.305
   88DPPC   C23 4373   8.114   6.262   4.233
   88DPPC   C24 4374   8.079   6.204   4.095
   88DPPC   C25 4375   8.198   6.142   4.023
   88DPPC   C26 4376   8.169   6.132   3.873
   88DPPC   C27 4377   8.291   6.082   3.795
   88DPPC   C28 4378   8.247   6.013   3.666
   88DPPC   C29 4379   8.182   6.114   3.572
   88DPPC   C30 4380   8.171   6.075   3.425
   88DPPC   C31 4381   8.151   6.188   3.323
   88DPPC   C32 4382   7.552   7.028   4.969
   88DPPC   O33 4383   7.433   7.010   4.891
   88DPPC   C34 4384   7.352   7.120   4.895
   88DPPC   O35 4385   7.394   7.220   4.952
   88DPPC   C36 4386   7.210   7.100   4.843
   88DPPC   C37 4387   7.201   7.121   4.692
   88DPPC   C38 4388   7.066   7.081   4.632
   88DPPC   C39 4389   7.043   6.930   4.641
   88DPPC   C40 4390   6.896   6.900   4.607
   88DPPC   C41 4391   6.878   6.756   4.654
   88DPPC   C42 4392   6.730   6.716   4.658
   88DPPC   C43 4393   6.668   6.714   4.518
   88DPPC   C44 4394   6.532   6.645   4.507
   88DPPC   C45 4395   6.448   6.686   4.385
   88DPPC   C46 4396   6.358   6.569   4.346
   88DPPC   C47 4397   6.294   6.592   4.209
   88DPPC   C48 4398   6.208   6.468   4.180
   88DPPC   C49 4399   6.288   6.343   4.215
   88DPPC   C50 4400   6.226   6.221   4.145
   89DPPC    C1 4401   8.947   1.096   5.650
   89DPPC    C2 4402   9.001   1.318   5.665
   89DPPC    C3 4403   9.072   1.203   5.481
   89DPPC    N4 4404   8.955   1.218   5.568
   89DPPC    C5 4405   8.844   1.256   5.480
   89DPPC    C6 4406   8.704   1.302   5.522
   89DPPC    O7 4407   8.716   1.385   5.638
   89DPPC    P8 4408   8.584   1.477   5.647
   89DPPC    O9 4409   8.614   1.593   5.734
   89DPPC   O10 4410   8.476   1.378   5.664
   89DPPC   O11 4411   8.589   1.524   5.493
   89DPPC   C12 4412   8.484   1.609   5.446
   89DPPC   C13 4413   8.529   1.682   5.320
   89DPPC   O14 4414   8.423   1.770   5.279
   89DPPC   C15 4415   8.425   1.903   5.305
   89DPPC   O16 4416   8.487   1.942   5.404
   89DPPC   C17 4417   8.338   1.994   5.217
   89DPPC   C18 4418   8.319   1.949   5.072
   89DPPC   C19 4419   8.252   2.049   4.978
   89DPPC   C20 4420   8.223   1.987   4.841
   89DPPC   C21 4421   8.157   2.086   4.745
   89DPPC   C22 4422   8.025   2.134   4.806
   89DPPC   C23 4423   7.968   2.220   4.694
   89DPPC   C24 4424   7.837   2.282   4.743
   89DPPC   C25 4425   7.761   2.367   4.641
   89DPPC   C26 4426   7.716   2.279   4.524
   89DPPC   C27 4427   7.618   2.358   4.437
   89DPPC   C28 4428   7.670   2.489   4.377
   89DPPC   C29 4429   7.566   2.541   4.277
   89DPPC   C30 4430   7.624   2.672   4.224
   89DPPC   C31 4431   7.753   2.657   4.144
   89DPPC   C32 4432   8.574   1.583   5.212
   89DPPC   O33 4433   8.643   1.656   5.110
   89DPPC   C34 4434   8.672   1.597   4.991
   89DPPC   O35 4435   8.636   1.480   4.976
   89DPPC   C36 4436   8.750   1.671   4.881
   89DPPC   C37 4437   8.652   1.740   4.786
   89DPPC   C38 4438   8.717   1.865   4.727
   89DPPC   C39 4439   8.729   1.874   4.575
   89DPPC   C40 4440   8.594   1.893   4.505
   89DPPC   C41 4441   8.622   1.933   4.359
   89DPPC   C42 4442   8.499   1.909   4.272
   89DPPC   C43 4443   8.370   1.954   4.342
   89DPPC   C44 4444   8.252   1.897   4.263
   89DPPC   C45 4445   8.132   1.968   4.325
   89DPPC   C46 4446   8.006   1.927   4.247
   89DPPC   C47 4447   7.874   1.960   4.315
   89DPPC   C48 4448   7.765   1.894   4.230
   89DPPC   C49 4449   7.629   1.947   4.278
   89DPPC   C50 4450   7.525   1.910   4.172
   90DPPC    C1 4451   6.130   3.042   6.144
   90DPPC    C2 4452   5.970   3.208   6.051
   90DPPC    C3 4453   6.097   3.256   6.218
   90DPPC    N4 4454   6.108   3.178   6.094
   90DPPC    C5 4455   6.208   3.228   5.999
   90DPPC    C6 4456   6.238   3.378   5.991
   90DPPC    O7 4457   6.143   3.454   5.916
   90DPPC    P8 4458   6.145   3.609   5.958
   90DPPC    O9 4459   6.170   3.605   6.104
   90DPPC   O10 4460   6.045   3.695   5.891
   90DPPC   O11 4461   6.286   3.636   5.885
   90DPPC   C12 4462   6.264   3.643   5.744
   90DPPC   C13 4463   6.391   3.645   5.658
   90DPPC   O14 4464   6.375   3.687   5.522
   90DPPC   C15 4465   6.311   3.803   5.489
   90DPPC   O16 4466   6.299   3.895   5.569
   90DPPC   C17 4467   6.284   3.825   5.340
   90DPPC   C18 4468   6.160   3.747   5.296
   90DPPC   C19 4469   6.104   3.797   5.162
   90DPPC   C20 4470   6.198   3.817   5.043
   90DPPC   C21 4471   6.136   3.858   4.909
   90DPPC   C22 4472   6.243   3.913   4.814
   90DPPC   C23 4473   6.205   3.941   4.669
   90DPPC   C24 4474   6.323   3.985   4.582
   90DPPC   C25 4475   6.279   4.013   4.438
   90DPPC   C26 4476   6.396   3.989   4.342
   90DPPC   C27 4477   6.355   4.025   4.199
   90DPPC   C28 4478   6.477   4.006   4.110
   90DPPC   C29 4479   6.448   3.971   3.963
   90DPPC   C30 4480   6.408   3.825   3.942
   90DPPC   C31 4481   6.540   3.748   3.945
   90DPPC   C32 4482   6.470   3.515   5.670
   90DPPC   O33 4483   6.395   3.396   5.642
   90DPPC   C34 4484   6.460   3.279   5.663
   90DPPC   O35 4485   6.559   3.280   5.736
   90DPPC   C36 4486   6.383   3.147   5.652
   90DPPC   C37 4487   6.406   3.070   5.522
   90DPPC   C38 4488   6.294   2.966   5.513
   90DPPC   C39 4489   6.282   2.902   5.375
   90DPPC   C40 4490   6.171   2.797   5.374
   90DPPC   C41 4491   6.170   2.731   5.235
   90DPPC   C42 4492   6.078   2.614   5.204
   90DPPC   C43 4493   6.070   2.586   5.054
   90DPPC   C44 4494   6.025   2.701   4.963
   90DPPC   C45 4495   6.038   2.645   4.821
   90DPPC   C46 4496   6.013   2.745   4.708
   90DPPC   C47 4497   6.078   2.691   4.581
   90DPPC   C48 4498   5.984   2.710   4.462
   90DPPC   C49 4499   6.016   2.601   4.360
   90DPPC   C50 4500   6.157   2.622   4.305
   91DPPC    C1 4501   4.569   7.048   5.569
   91DPPC    C2 4502   4.513   7.185   5.741
   91DPPC    C3 4503   4.700   7.254   5.622
   91DPPC    N4 4504   4.568   7.190   5.605
   91DPPC    C5 4505   4.467   7.271   5.534
   91DPPC    C6 4506   4.500   7.273   5.385
   91DPPC    O7 4507   4.409   7.366   5.326
   91DPPC    P8 4508   4.363   7.314   5.181
   91DPPC    O9 4509   4.294   7.432   5.124
   91DPPC   O10 4510   4.291   7.188   5.213
   91DPPC   O11 4511   4.504   7.263   5.122
   91DPPC   C12 4512   4.508   7.331   4.996
   91DPPC   C13 4513   4.626   7.281   4.913
   91DPPC   O14 4514   4.669   7.358   4.799
   91DPPC   C15 4515   4.747   7.469   4.810
   91DPPC   O16 4516   4.792   7.516   4.914
   91DPPC   C17 4517   4.812   7.504   4.676
   91DPPC   C18 4518   4.779   7.423   4.550
   91DPPC   C19 4519   4.873   7.456   4.434
   91DPPC   C20 4520   4.815   7.403   4.303
   91DPPC   C21 4521   4.887   7.472   4.187
   91DPPC   C22 4522   4.879   7.390   4.058
   91DPPC   C23 4523   4.946   7.456   3.938
   91DPPC   C24 4524   4.968   7.365   3.817
   91DPPC   C25 4525   5.017   7.450   3.700
   91DPPC   C26 4526   5.031   7.356   3.580
   91DPPC   C27 4527   5.130   7.240   3.597
   91DPPC   C28 4528   5.173   7.192   3.458
   91DPPC   C29 4529   5.280   7.082   3.460
   91DPPC   C30 4530   5.360   7.068   3.331
   91DPPC   C31 4531   5.272   7.019   3.216
   91DPPC   C32 4532   4.609   7.131   4.888
   91DPPC   O33 4533   4.471   7.094   4.878
   91DPPC   C34 4534   4.442   6.967   4.838
   91DPPC   O35 4535   4.526   6.880   4.864
   91DPPC   C36 4536   4.309   6.940   4.769
   91DPPC   C37 4537   4.328   6.838   4.656
   91DPPC   C38 4538   4.185   6.806   4.610
   91DPPC   C39 4539   4.199   6.710   4.492
   91DPPC   C40 4540   4.262   6.803   4.388
   91DPPC   C41 4541   4.304   6.723   4.265
   91DPPC   C42 4542   4.190   6.637   4.210
   91DPPC   C43 4543   4.241   6.547   4.097
   91DPPC   C44 4544   4.365   6.471   4.144
   91DPPC   C45 4545   4.386   6.353   4.048
   91DPPC   C46 4546   4.406   6.395   3.902
   91DPPC   C47 4547   4.427   6.276   3.809
   91DPPC   C48 4548   4.391   6.328   3.670
   91DPPC   C49 4549   4.395   6.205   3.578
   91DPPC   C50 4550   4.364   6.238   3.432
   92DPPC    C1 4551   1.912   5.902   5.433
   92DPPC    C2 4552   1.886   6.131   5.519
   92DPPC    C3 4553   1.854   5.957   5.657
   92DPPC    N4 4554   1.938   5.995   5.543
   92DPPC    C5 4555   2.079   5.994   5.586
   92DPPC    C6 4556   2.178   6.039   5.479
   92DPPC    O7 4557   2.238   5.930   5.409
   92DPPC    P8 4558   2.359   5.975   5.312
   92DPPC    O9 4559   2.372   5.846   5.242
   92DPPC   O10 4560   2.437   6.018   5.430
   92DPPC   O11 4561   2.268   6.078   5.227
   92DPPC   C12 4562   2.229   6.004   5.111
   92DPPC   C13 4563   2.145   6.078   5.007
   92DPPC   O14 4564   2.108   5.993   4.897
   92DPPC   C15 4565   1.976   5.962   4.890
   92DPPC   O16 4566   1.898   6.036   4.950
   92DPPC   C17 4567   1.932   5.848   4.798
   92DPPC   C18 4568   1.921   5.899   4.654
   92DPPC   C19 4569   1.942   5.768   4.579
   92DPPC   C20 4570   1.913   5.807   4.434
   92DPPC   C21 4571   1.892   5.682   4.348
   92DPPC   C22 4572   1.850   5.722   4.206
   92DPPC   C23 4573   1.846   5.599   4.115
   92DPPC   C24 4574   1.747   5.498   4.174
   92DPPC   C25 4575   1.734   5.384   4.073
   92DPPC   C26 4576   1.613   5.300   4.117
   92DPPC   C27 4577   1.588   5.214   3.994
   92DPPC   C28 4578   1.605   5.298   3.867
   92DPPC   C29 4579   1.550   5.209   3.756
   92DPPC   C30 4580   1.571   5.244   3.609
   92DPPC   C31 4581   1.527   5.391   3.600
   92DPPC   C32 4582   2.229   6.202   4.975
   92DPPC   O33 4583   2.365   6.181   4.935
   92DPPC   C34 4584   2.449   6.287   4.922
   92DPPC   O35 4585   2.455   6.390   4.988
   92DPPC   C36 4586   2.580   6.256   4.849
   92DPPC   C37 4587   2.636   6.376   4.773
   92DPPC   C38 4588   2.780   6.350   4.729
   92DPPC   C39 4589   2.794   6.238   4.626
   92DPPC   C40 4590   2.710   6.274   4.503
   92DPPC   C41 4591   2.748   6.180   4.389
   92DPPC   C42 4592   2.729   6.031   4.419
   92DPPC   C43 4593   2.730   5.953   4.287
   92DPPC   C44 4594   2.681   5.812   4.322
   92DPPC   C45 4595   2.781   5.739   4.411
   92DPPC   C46 4596   2.742   5.595   4.448
   92DPPC   C47 4597   2.834   5.529   4.551
   92DPPC   C48 4598   2.793   5.392   4.605
   92DPPC   C49 4599   2.893   5.335   4.706
   92DPPC   C50 4600   2.837   5.202   4.756
   93DPPC    C1 4601   1.392   2.689   5.063
   93DPPC    C2 4602   1.305   2.872   4.944
   93DPPC    C3 4603   1.177   2.666   4.982
   93DPPC    N4 4604   1.268   2.766   5.039
   93DPPC    C5 4605   1.217   2.799   5.173
   93DPPC    C6 4606   1.284   2.916   5.247
   93DPPC    O7 4607   1.215   3.036   5.212
   93DPPC    P8 4608   1.292   3.161   5.278
   93DPPC    O9 4609   1.377   3.108   5.387
   93DPPC   O10 4610   1.181   3.255   5.308
   93DPPC   O11 4611   1.370   3.202   5.143
   93DPPC   C12 4612   1.272   3.245   5.049
   93DPPC   C13 4613   1.308   3.363   4.958
   93DPPC   O14 4614   1.217   3.413   4.859
   93DPPC   C15 4615   1.110   3.490   4.892
   93DPPC   O16 4616   1.075   3.513   5.008
   93DPPC   C17 4617   1.027   3.532   4.771
   93DPPC   C18 4618   0.890   3.463   4.775
   93DPPC   C19 4619   0.797   3.505   4.661
   93DPPC   C20 4620   0.868   3.478   4.528
   93DPPC   C21 4621   0.807   3.512   4.392
   93DPPC   C22 4622   0.781   3.662   4.372
   93DPPC   C23 4623   0.721   3.697   4.236
   93DPPC   C24 4624   0.826   3.682   4.125
   93DPPC   C25 4625   0.772   3.732   3.991
   93DPPC   C26 4626   0.658   3.637   3.953
   93DPPC   C27 4627   0.591   3.658   3.817
   93DPPC   C28 4628   0.682   3.635   3.696
   93DPPC   C29 4629   0.598   3.666   3.571
   93DPPC   C30 4630   0.679   3.604   3.457
   93DPPC   C31 4631   0.611   3.644   3.326
   93DPPC   C32 4632   1.435   3.311   4.890
   93DPPC   O33 4633   1.410   3.208   4.794
   93DPPC   C34 4634   1.505   3.184   4.700
   93DPPC   O35 4635   1.624   3.209   4.720
   93DPPC   C36 4636   1.473   3.085   4.588
   93DPPC   C37 4637   1.331   3.099   4.533
   93DPPC   C38 4638   1.301   2.994   4.426
   93DPPC   C39 4639   1.388   3.007   4.300
   93DPPC   C40 4640   1.351   2.899   4.199
   93DPPC   C41 4641   1.434   2.914   4.071
   93DPPC   C42 4642   1.368   2.826   3.965
   93DPPC   C43 4643   1.439   2.824   3.830
   93DPPC   C44 4644   1.360   2.911   3.731
   93DPPC   C45 4645   1.445   2.939   3.607
   93DPPC   C46 4646   1.357   3.035   3.526
   93DPPC   C47 4647   1.423   3.123   3.421
   93DPPC   C48 4648   1.441   3.054   3.286
   93DPPC   C49 4649   1.472   3.138   3.162
   93DPPC   C50 4650   1.494   3.065   3.029
   94DPPC    C1 4651   3.529   6.440   5.443
   94DPPC    C2 4652   3.623   6.543   5.647
   94DPPC    C3 4653   3.392   6.530   5.621
   94DPPC    N4 4654   3.517   6.460   5.588
   94DPPC    C5 4655   3.503   6.327   5.649
   94DPPC    C6 4656   3.626   6.238   5.671
   94DPPC    O7 4657   3.697   6.205   5.551
   94DPPC    P8 4658   3.816   6.107   5.596
   94DPPC    O9 4659   3.736   6.006   5.668
   94DPPC   O10 4660   3.901   6.206   5.668
   94DPPC   O11 4661   3.852   6.079   5.442
   94DPPC   C12 4662   3.918   6.195   5.391
   94DPPC   C13 4663   3.936   6.188   5.239
   94DPPC   O14 4664   3.821   6.243   5.173
   94DPPC   C15 4665   3.820   6.377   5.149
   94DPPC   O16 4666   3.908   6.450   5.194
   94DPPC   C17 4667   3.692   6.432   5.086
   94DPPC   C18 4668   3.732   6.525   4.971
   94DPPC   C19 4669   3.597   6.558   4.907
   94DPPC   C20 4670   3.618   6.659   4.794
   94DPPC   C21 4671   3.490   6.685   4.715
   94DPPC   C22 4672   3.530   6.792   4.613
   94DPPC   C23 4673   3.647   6.749   4.525
   94DPPC   C24 4674   3.609   6.629   4.438
   94DPPC   C25 4675   3.695   6.614   4.312
   94DPPC   C26 4676   3.699   6.471   4.258
   94DPPC   C27 4677   3.748   6.481   4.114
   94DPPC   C28 4678   3.808   6.345   4.075
   94DPPC   C29 4679   3.705   6.234   4.101
   94DPPC   C30 4680   3.634   6.202   3.970
   94DPPC   C31 4681   3.545   6.079   3.990
   94DPPC   C32 4682   3.967   6.044   5.200
   94DPPC   O33 4683   4.021   6.012   5.071
   94DPPC   C34 4684   4.075   5.888   5.078
   94DPPC   O35 4685   4.065   5.829   5.186
   94DPPC   C36 4686   4.157   5.843   4.957
   94DPPC   C37 4687   4.076   5.737   4.882
   94DPPC   C38 4688   4.117   5.754   4.736
   94DPPC   C39 4689   4.247   5.680   4.704
   94DPPC   C40 4690   4.285   5.744   4.570
   94DPPC   C41 4691   4.177   5.704   4.469
   94DPPC   C42 4692   4.235   5.741   4.332
   94DPPC   C43 4693   4.361   5.664   4.292
   94DPPC   C44 4694   4.367   5.678   4.140
   94DPPC   C45 4695   4.489   5.603   4.085
   94DPPC   C46 4696   4.503   5.609   3.933
   94DPPC   C47 4697   4.600   5.501   3.885
   94DPPC   C48 4698   4.648   5.525   3.741
   94DPPC   C49 4699   4.714   5.397   3.688
   94DPPC   C50 4700   4.748   5.419   3.540
   95DPPC    C1 4701   1.166   1.774   5.602
   95DPPC    C2 4702   1.007   1.692   5.453
   95DPPC    C3 4703   0.946   1.798   5.659
   95DPPC    N4 4704   1.035   1.805   5.543
   95DPPC    C5 4705   1.033   1.930   5.465
   95DPPC    C6 4706   1.041   2.061   5.544
   95DPPC    O7 4707   1.176   2.105   5.564
   95DPPC    P8 4708   1.166   2.250   5.633
   95DPPC    O9 4709   1.309   2.279   5.652
   95DPPC   O10 4710   1.080   2.234   5.752
   95DPPC   O11 4711   1.107   2.327   5.505
   95DPPC   C12 4712   1.209   2.357   5.409
   95DPPC   C13 4713   1.145   2.401   5.278
   95DPPC   O14 4714   1.229   2.413   5.162
   95DPPC   C15 4715   1.256   2.294   5.103
   95DPPC   O16 4716   1.205   2.193   5.151
   95DPPC   C17 4717   1.374   2.283   5.006
   95DPPC   C18 4718   1.375   2.156   4.920
   95DPPC   C19 4719   1.255   2.160   4.825
   95DPPC   C20 4720   1.239   2.021   4.762
   95DPPC   C21 4721   1.123   2.021   4.663
   95DPPC   C22 4722   1.107   1.880   4.605
   95DPPC   C23 4723   0.990   1.883   4.507
   95DPPC   C24 4724   1.031   1.967   4.386
   95DPPC   C25 4725   0.919   1.965   4.281
   95DPPC   C26 4726   0.971   1.920   4.145
   95DPPC   C27 4727   0.854   1.909   4.047
   95DPPC   C28 4728   0.915   1.879   3.910
   95DPPC   C29 4729   0.814   1.842   3.801
   95DPPC   C30 4730   0.902   1.791   3.686
   95DPPC   C31 4731   0.799   1.759   3.577
   95DPPC   C32 4732   1.065   2.517   5.336
   95DPPC   O33 4733   0.991   2.590   5.238
   95DPPC   C34 4734   0.868   2.627   5.283
   95DPPC   O35 4735   0.822   2.554   5.371
   95DPPC   C36 4736   0.792   2.743   5.218
   95DPPC   C37 4737   0.822   2.759   5.069
   95DPPC   C38 4738   0.741   2.877   5.015
   95DPPC   C39 4739   0.798   2.900   4.875
   95DPPC   C40 4740   0.881   3.028   4.865
   95DPPC   C41 4741   0.948   3.035   4.728
   95DPPC   C42 4742   0.855   3.087   4.618
   95DPPC   C43 4743   0.934   3.091   4.487
   95DPPC   C44 4744   0.837   3.125   4.373
   95DPPC   C45 4745   0.921   3.156   4.249
   95DPPC   C46 4746   0.840   3.191   4.124
   95DPPC   C47 4747   0.925   3.229   4.003
   95DPPC   C48 4748   0.846   3.252   3.874
   95DPPC   C49 4749   0.769   3.125   3.835
   95DPPC   C50 4750   0.851   3.001   3.798
   96DPPC    C1 4751   2.055   7.957   4.729
   96DPPC    C2 4752   2.032   7.865   4.952
   96DPPC    C3 4753   2.201   7.783   4.801
   96DPPC    N4 4754   2.126   7.902   4.845
   96DPPC    C5 4755   2.218   8.009   4.885
   96DPPC    C6 4756   2.335   7.978   4.979
   96DPPC    O7 4757   2.389   8.099   5.032
   96DPPC    P8 4758   2.543   8.097   5.077
   96DPPC    O9 4759   2.565   7.960   5.127
   96DPPC   O10 4760   2.559   8.218   5.161
   96DPPC   O11 4761   2.599   8.112   4.927
   96DPPC   C12 4762   2.604   8.252   4.896
   96DPPC   C13 4763   2.681   8.276   4.766
   96DPPC   O14 4764   2.624   8.383   4.689
   96DPPC   C15 4765   2.668   8.510   4.711
   96DPPC   O16 4766   2.711   8.543   4.822
   96DPPC   C17 4767   2.609   8.616   4.618
   96DPPC   C18 4768   2.700   8.625   4.495
   96DPPC   C19 4769   2.619   8.699   4.388
   96DPPC   C20 4770   2.491   8.624   4.354
   96DPPC   C21 4771   2.413   8.693   4.242
   96DPPC   C22 4772   2.297   8.608   4.189
   96DPPC   C23 4773   2.267   8.632   4.040
   96DPPC   C24 4774   2.213   8.769   4.000
   96DPPC   C25 4775   2.183   8.778   3.850
   96DPPC   C26 4776   2.150   8.921   3.805
   96DPPC   C27 4777   2.189   8.932   3.658
   96DPPC   C28 4778   2.143   9.072   3.615
   96DPPC   C29 4779   2.182   9.108   3.472
   96DPPC   C30 4780   2.334   9.090   3.475
   96DPPC   C31 4781   2.385   9.082   3.331
   96DPPC   C32 4782   2.685   8.150   4.680
   96DPPC   O33 4783   2.764   8.152   4.561
   96DPPC   C34 4784   2.723   8.060   4.470
   96DPPC   O35 4785   2.645   7.969   4.495
   96DPPC   C36 4786   2.793   8.065   4.334
   96DPPC   C37 4787   2.941   8.035   4.359
   96DPPC   C38 4788   3.028   8.051   4.234
   96DPPC   C39 4789   3.174   8.018   4.267
   96DPPC   C40 4790   3.210   8.097   4.392
   96DPPC   C41 4791   3.339   8.047   4.457
   96DPPC   C42 4792   3.454   8.057   4.356
   96DPPC   C43 4793   3.582   8.039   4.438
   96DPPC   C44 4794   3.708   8.075   4.359
   96DPPC   C45 4795   3.701   8.220   4.313
   96DPPC   C46 4796   3.813   8.262   4.217
   96DPPC   C47 4797   3.800   8.410   4.179
   96DPPC   C48 4798   3.918   8.460   4.095
   96DPPC   C49 4799   4.041   8.406   4.168
   96DPPC   C50 4800   4.169   8.449   4.095
   97DPPC    C1 4801   9.580   4.339   5.805
   97DPPC    C2 4802   9.539   4.189   5.612
   97DPPC    C3 4803   9.728   4.304   5.629
   97DPPC    N4 4804   9.632   4.235   5.716
   97DPPC    C5 4805   9.666   4.125   5.808
   97DPPC    C6 4806   9.763   4.013   5.770
   97DPPC    O7 4807   9.903   4.036   5.757
   97DPPC    P8 4808   9.966   3.888   5.771
   97DPPC    O9 4809   9.863   3.793   5.724
   97DPPC   O10 4810   9.988   3.882   5.917
   97DPPC   O11 4811  10.098   3.881   5.678
   97DPPC   C12 4812  10.045   3.910   5.549
   97DPPC   C13 4813  10.122   3.837   5.439
   97DPPC   O14 4814  10.134   3.921   5.324
   97DPPC   C15 4815  10.208   3.868   5.223
   97DPPC   O16 4816  10.271   3.764   5.240
   97DPPC   C17 4817  10.251   3.962   5.110
   97DPPC   C18 4818  10.260   3.876   4.984
   97DPPC   C19 4819  10.297   3.970   4.869
   97DPPC   C20 4820  10.299   3.901   4.733
   97DPPC   C21 4821  10.287   3.996   4.613
   97DPPC   C22 4822  10.144   4.047   4.597
   97DPPC   C23 4823  10.140   4.158   4.491
   97DPPC   C24 4824   9.994   4.180   4.452
   97DPPC   C25 4825   9.965   4.269   4.331
   97DPPC   C26 4826  10.019   4.213   4.200
   97DPPC   C27 4827   9.973   4.069   4.176
   97DPPC   C28 4828   9.967   4.031   4.028
   97DPPC   C29 4829   9.868   4.126   3.961
   97DPPC   C30 4830   9.853   4.084   3.814
   97DPPC   C31 4831   9.986   4.082   3.739
   97DPPC   C32 4832  10.064   3.697   5.412
   97DPPC   O33 4833   9.966   3.705   5.308
   97DPPC   C34 4834   9.902   3.592   5.268
   97DPPC   O35 4835   9.918   3.486   5.329
   97DPPC   C36 4836   9.832   3.609   5.133
   97DPPC   C37 4837   9.931   3.623   5.018
   97DPPC   C38 4838   9.860   3.629   4.883
   97DPPC   C39 4839   9.933   3.688   4.762
   97DPPC   C40 4840   9.843   3.703   4.640
   97DPPC   C41 4841   9.925   3.718   4.511
   97DPPC   C42 4842   9.845   3.673   4.388
   97DPPC   C43 4843   9.705   3.732   4.375
   97DPPC   C44 4844   9.630   3.696   4.247
   97DPPC   C45 4845   9.707   3.724   4.118
   97DPPC   C46 4846   9.618   3.686   3.999
   97DPPC   C47 4847   9.695   3.711   3.869
   97DPPC   C48 4848   9.611   3.714   3.741
   97DPPC   C49 4849   9.695   3.719   3.613
   97DPPC   C50 4850   9.622   3.758   3.484
   98DPPC    C1 4851   7.981   4.290   5.736
   98DPPC    C2 4852   7.807   4.141   5.787
   98DPPC    C3 4853   7.829   4.376   5.881
   98DPPC    N4 4854   7.837   4.283   5.768
   98DPPC    C5 4855   7.771   4.343   5.651
   98DPPC    C6 4856   7.618   4.351   5.647
   98DPPC    O7 4857   7.548   4.226   5.648
   98DPPC    P8 4858   7.402   4.279   5.693
   98DPPC    O9 4859   7.434   4.357   5.814
   98DPPC   O10 4860   7.311   4.162   5.692
   98DPPC   O11 4861   7.363   4.366   5.563
   98DPPC   C12 4862   7.336   4.267   5.463
   98DPPC   C13 4863   7.306   4.335   5.329
   98DPPC   O14 4864   7.263   4.241   5.230
   98DPPC   C15 4865   7.133   4.242   5.189
   98DPPC   O16 4866   7.066   4.323   5.254
   98DPPC   C17 4867   7.092   4.168   5.062
   98DPPC   C18 4868   7.211   4.166   4.966
   98DPPC   C19 4869   7.236   4.294   4.886
   98DPPC   C20 4870   7.244   4.275   4.734
   98DPPC   C21 4871   7.351   4.174   4.692
   98DPPC   C22 4872   7.381   4.181   4.542
   98DPPC   C23 4873   7.439   4.315   4.497
   98DPPC   C24 4874   7.475   4.340   4.350
   98DPPC   C25 4875   7.342   4.359   4.277
   98DPPC   C26 4876   7.357   4.338   4.127
   98DPPC   C27 4877   7.458   4.435   4.065
   98DPPC   C28 4878   7.431   4.447   3.915
   98DPPC   C29 4879   7.291   4.507   3.899
   98DPPC   C30 4880   7.249   4.500   3.752
   98DPPC   C31 4881   7.350   4.556   3.652
   98DPPC   C32 4882   7.437   4.405   5.290
   98DPPC   O33 4883   7.435   4.494   5.179
   98DPPC   C34 4884   7.553   4.498   5.110
   98DPPC   O35 4885   7.654   4.442   5.153
   98DPPC   C36 4886   7.547   4.543   4.964
   98DPPC   C37 4887   7.653   4.644   4.919
   98DPPC   C38 4888   7.612   4.700   4.783
   98DPPC   C39 4889   7.709   4.679   4.667
   98DPPC   C40 4890   7.656   4.756   4.546
   98DPPC   C41 4891   7.718   4.703   4.416
   98DPPC   C42 4892   7.679   4.786   4.294
   98DPPC   C43 4893   7.749   4.732   4.169
   98DPPC   C44 4894   7.721   4.806   4.038
   98DPPC   C45 4895   7.757   4.720   3.916
   98DPPC   C46 4896   7.907   4.691   3.915
   98DPPC   C47 4897   7.939   4.618   3.784
   98DPPC   C48 4898   8.087   4.646   3.755
   98DPPC   C49 4899   8.145   4.521   3.689
   98DPPC   C50 4900   8.297   4.533   3.672
   99DPPC    C1 4901   8.390   5.371   1.278
   99DPPC    C2 4902   8.526   5.483   1.449
   99DPPC    C3 4903   8.539   5.520   1.211
   99DPPC    N4 4904   8.448   5.497   1.325
   99DPPC    C5 4905   8.353   5.609   1.331
   99DPPC    C6 4906   8.240   5.612   1.435
   99DPPC    O7 4907   8.106   5.600   1.386
   99DPPC    P8 4908   8.015   5.709   1.461
   99DPPC    O9 4909   7.880   5.724   1.402
   99DPPC   O10 4910   8.090   5.836   1.468
   99DPPC   O11 4911   8.009   5.666   1.616
   99DPPC   C12 4912   7.886   5.713   1.673
   99DPPC   C13 4913   7.885   5.717   1.826
   99DPPC   O14 4914   7.903   5.850   1.876
   99DPPC   C15 4915   7.800   5.939   1.861
   99DPPC   O16 4916   7.706   5.937   1.783
   99DPPC   C17 4917   7.802   6.062   1.953
   99DPPC   C18 4918   7.660   6.097   1.996
   99DPPC   C19 4919   7.666   6.232   2.067
   99DPPC   C20 4920   7.745   6.209   2.196
   99DPPC   C21 4921   7.723   6.337   2.277
   99DPPC   C22 4922   7.574   6.339   2.311
   99DPPC   C23 4923   7.540   6.461   2.397
   99DPPC   C24 4924   7.392   6.500   2.390
   99DPPC   C25 4925   7.372   6.625   2.476
   99DPPC   C26 4926   7.448   6.610   2.608
   99DPPC   C27 4927   7.375   6.555   2.731
   99DPPC   C28 4928   7.465   6.483   2.832
   99DPPC   C29 4929   7.377   6.461   2.955
   99DPPC   C30 4930   7.432   6.341   3.032
   99DPPC   C31 4931   7.341   6.321   3.154
   99DPPC   C32 4932   7.989   5.616   1.874
   99DPPC   O33 4933   7.937   5.493   1.925
   99DPPC   C34 4934   8.035   5.419   1.982
   99DPPC   O35 4935   8.148   5.464   1.996
   99DPPC   C36 4936   7.987   5.303   2.071
   99DPPC   C37 4937   8.047   5.314   2.211
   99DPPC   C38 4938   8.004   5.199   2.303
   99DPPC   C39 4939   8.083   5.225   2.432
   99DPPC   C40 4940   8.047   5.116   2.533
   99DPPC   C41 4941   8.134   5.118   2.659
   99DPPC   C42 4942   8.054   5.060   2.776
   99DPPC   C43 4943   7.931   5.144   2.810
   99DPPC   C44 4944   7.869   5.115   2.947
   99DPPC   C45 4945   7.808   4.976   2.968
   99DPPC   C46 4946   7.768   4.954   3.114
   99DPPC   C47 4947   7.682   4.828   3.124
   99DPPC   C48 4948   7.649   4.772   3.262
   99DPPC   C49 4949   7.538   4.666   3.256
   99DPPC   C50 4950   7.406   4.741   3.241
  100DPPC    C1 4951   4.436   4.475   2.302
  100DPPC    C2 4952   4.304   4.499   2.107
  100DPPC    C3 4953   4.223   4.388   2.303
  100DPPC    N4 4954   4.300   4.503   2.253
  100DPPC    C5 4955   4.246   4.627   2.312
  100DPPC    C6 4956   4.104   4.666   2.270
  100DPPC    O7 4957   4.082   4.806   2.288
  100DPPC    P8 4958   3.983   4.862   2.174
  100DPPC    O9 4959   4.039   4.853   2.037
  100DPPC   O10 4960   3.937   4.992   2.229
  100DPPC   O11 4961   3.853   4.768   2.189
  100DPPC   C12 4962   3.761   4.809   2.291
  100DPPC   C13 4963   3.650   4.711   2.329
  100DPPC   O14 4964   3.536   4.774   2.390
  100DPPC   C15 4965   3.465   4.873   2.331
  100DPPC   O16 4966   3.473   4.889   2.209
  100DPPC   C17 4967   3.348   4.910   2.422
  100DPPC   C18 4968   3.220   4.831   2.393
  100DPPC   C19 4969   3.187   4.724   2.497
  100DPPC   C20 4970   3.173   4.787   2.636
  100DPPC   C21 4971   3.122   4.691   2.745
  100DPPC   C22 4972   3.100   4.768   2.875
  100DPPC   C23 4973   3.036   4.664   2.968
  100DPPC   C24 4974   3.031   4.723   3.109
  100DPPC   C25 4975   2.923   4.831   3.108
  100DPPC   C26 4976   2.906   4.904   3.242
  100DPPC   C27 4977   2.861   5.045   3.202
  100DPPC   C28 4978   2.847   5.135   3.325
  100DPPC   C29 4979   2.839   5.279   3.274
  100DPPC   C30 4980   2.829   5.371   3.396
  100DPPC   C31 4981   2.928   5.332   3.506
  100DPPC   C32 4982   3.717   4.585   2.385
  100DPPC   O33 4983   3.810   4.613   2.490
  100DPPC   C34 4984   3.864   4.498   2.539
  100DPPC   O35 4985   3.839   4.389   2.487
  100DPPC   C36 4986   3.983   4.518   2.633
  100DPPC   C37 4987   3.948   4.493   2.780
  100DPPC   C38 4988   4.071   4.512   2.870
  100DPPC   C39 4989   4.037   4.532   3.018
  100DPPC   C40 4990   3.983   4.673   3.043
  100DPPC   C41 4991   3.966   4.681   3.195
  100DPPC   C42 4992   3.926   4.814   3.258
  100DPPC   C43 4993   3.816   4.895   3.188
  100DPPC   C44 4994   3.781   5.023   3.264
  100DPPC   C45 4995   3.725   5.135   3.177
  100DPPC   C46 4996   3.715   5.264   3.258
  100DPPC   C47 4997   3.646   5.371   3.173
  100DPPC   C48 4998   3.630   5.497   3.258
  100DPPC   C49 4999   3.770   5.531   3.312
  100DPPC   C50 5000   3.748   5.672   3.366
  101DPPC    C1 5001   5.732   0.392   1.974
  101DPPC    C2 5002   5.709   0.185   2.066
  101DPPC    C3 5003   5.718   0.377   2.205
  101DPPC    N4 5004   5.659   0.322   2.082
  101DPPC    C5 5005   5.513   0.340   2.072
  101DPPC    C6 5006   5.427   0.261   1.973
  101DPPC    O7 5007   5.290   0.300   1.981
  101DPPC    P8 5008   5.190   0.183   1.934
  101DPPC    O9 5009   5.266   0.087   1.850
  101DPPC   O10 5010   5.072   0.247   1.872
  101DPPC   O11 5011   5.165   0.127   2.082
  101DPPC   C12 5012   5.090   0.222   2.158
  101DPPC   C13 5013   5.059   0.182   2.302
  101DPPC   O14 5014   5.005   0.304   2.355
  101DPPC   C15 5015   4.878   0.306   2.404
  101DPPC   O16 5016   4.796   0.229   2.354
  101DPPC   C17 5017   4.841   0.404   2.515
  101DPPC   C18 5018   4.918   0.354   2.638
  101DPPC   C19 5019   4.898   0.466   2.740
  101DPPC   C20 5020   4.940   0.440   2.885
  101DPPC   C21 5021   4.919   0.556   2.983
  101DPPC   C22 5022   4.773   0.588   3.015
  101DPPC   C23 5023   4.714   0.451   3.048
  101DPPC   C24 5024   4.564   0.460   3.079
  101DPPC   C25 5025   4.501   0.335   3.139
  101DPPC   C26 5026   4.358   0.366   3.186
  101DPPC   C27 5027   4.338   0.268   3.302
  101DPPC   C28 5028   4.379   0.129   3.252
  101DPPC   C29 5029   4.417   0.044   3.374
  101DPPC   C30 5030   4.480  -0.087   3.326
  101DPPC   C31 5031   4.618  -0.077   3.262
  101DPPC   C32 5032   5.182   0.121   2.369
  101DPPC   O33 5033   5.307   0.190   2.380
  101DPPC   C34 5034   5.407   0.114   2.433
  101DPPC   O35 5035   5.409  -0.006   2.405
  101DPPC   C36 5036   5.534   0.186   2.478
  101DPPC   C37 5037   5.518   0.211   2.628
  101DPPC   C38 5038   5.639   0.267   2.704
  101DPPC   C39 5039   5.614   0.275   2.855
  101DPPC   C40 5040   5.722   0.373   2.903
  101DPPC   C41 5041   5.704   0.400   3.052
  101DPPC   C42 5042   5.814   0.479   3.123
  101DPPC   C43 5043   5.798   0.464   3.275
  101DPPC   C44 5044   5.910   0.526   3.358
  101DPPC   C45 5045   5.892   0.511   3.509
  101DPPC   C46 5046   6.011   0.570   3.586
  101DPPC   C47 5047   5.977   0.557   3.734
  101DPPC   C48 5048   6.082   0.624   3.822
  101DPPC   C49 5049   6.054   0.617   3.973
  101DPPC   C50 5050   6.174   0.628   4.067
  102DPPC    C1 5051   2.447   1.224   1.907
  102DPPC    C2 5052   2.553   1.127   2.090
  102DPPC    C3 5053   2.337   1.076   2.067
  102DPPC    N4 5054   2.455   1.099   1.984
  102DPPC    C5 5055   2.503   0.987   1.903
  102DPPC    C6 5056   2.466   0.980   1.754
  102DPPC    O7 5057   2.324   0.984   1.735
  102DPPC    P8 5058   2.281   0.875   1.625
  102DPPC    O9 5059   2.407   0.831   1.562
  102DPPC   O10 5060   2.150   0.907   1.564
  102DPPC   O11 5061   2.251   0.755   1.728
  102DPPC   C12 5062   2.135   0.798   1.801
  102DPPC   C13 5063   2.064   0.700   1.894
  102DPPC   O14 5064   1.939   0.748   1.948
  102DPPC   C15 5065   1.854   0.658   2.005
  102DPPC   O16 5066   1.870   0.538   1.983
  102DPPC   C17 5067   1.739   0.714   2.088
  102DPPC   C18 5068   1.779   0.683   2.232
  102DPPC   C19 5069   1.693   0.738   2.346
  102DPPC   C20 5070   1.748   0.695   2.482
  102DPPC   C21 5071   1.652   0.747   2.590
  102DPPC   C22 5072   1.718   0.743   2.728
  102DPPC   C23 5073   1.635   0.773   2.853
  102DPPC   C24 5074   1.595   0.920   2.853
  102DPPC   C25 5075   1.479   0.959   2.944
  102DPPC   C26 5076   1.482   1.110   2.966
  102DPPC   C27 5077   1.595   1.141   3.064
  102DPPC   C28 5078   1.640   1.283   3.029
  102DPPC   C29 5079   1.526   1.383   3.050
  102DPPC   C30 5080   1.567   1.524   3.009
  102DPPC   C31 5081   1.598   1.526   2.859
  102DPPC   C32 5082   2.168   0.667   2.001
  102DPPC   O33 5083   2.235   0.761   2.086
  102DPPC   C34 5084   2.299   0.696   2.187
  102DPPC   O35 5085   2.318   0.575   2.199
  102DPPC   C36 5086   2.356   0.777   2.303
  102DPPC   C37 5087   2.261   0.783   2.423
  102DPPC   C38 5088   2.256   0.650   2.498
  102DPPC   C39 5089   2.144   0.640   2.602
  102DPPC   C40 5090   2.176   0.754   2.699
  102DPPC   C41 5091   2.093   0.728   2.825
  102DPPC   C42 5092   2.134   0.593   2.886
  102DPPC   C43 5093   2.064   0.562   3.018
  102DPPC   C44 5094   2.134   0.443   3.083
  102DPPC   C45 5095   2.031   0.382   3.178
  102DPPC   C46 5096   2.077   0.262   3.261
  102DPPC   C47 5097   1.978   0.226   3.372
  102DPPC   C48 5098   1.993   0.075   3.395
  102DPPC   C49 5099   1.922   0.035   3.525
  102DPPC   C50 5100   1.772   0.020   3.497
  103DPPC    C1 5101   2.604   7.288   1.319
  103DPPC    C2 5102   2.555   7.084   1.430
  103DPPC    C3 5103   2.771   7.169   1.433
  103DPPC    N4 5104   2.630   7.210   1.441
  103DPPC    C5 5105   2.595   7.276   1.568
  103DPPC    C6 5106   2.670   7.405   1.599
  103DPPC    O7 5107   2.802   7.380   1.648
  103DPPC    P8 5108   2.891   7.513   1.667
  103DPPC    O9 5109   2.888   7.558   1.527
  103DPPC   O10 5110   3.019   7.477   1.731
  103DPPC   O11 5111   2.801   7.582   1.782
  103DPPC   C12 5112   2.848   7.550   1.914
  103DPPC   C13 5113   2.723   7.564   2.001
  103DPPC   O14 5114   2.628   7.459   1.980
  103DPPC   C15 5115   2.671   7.340   2.030
  103DPPC   O16 5116   2.781   7.323   2.083
  103DPPC   C17 5117   2.576   7.224   1.996
  103DPPC   C18 5118   2.585   7.128   2.115
  103DPPC   C19 5119   2.525   7.183   2.245
  103DPPC   C20 5120   2.549   7.078   2.353
  103DPPC   C21 5121   2.499   7.123   2.491
  103DPPC   C22 5122   2.511   7.017   2.601
  103DPPC   C23 5123   2.443   7.079   2.723
  103DPPC   C24 5124   2.407   6.987   2.840
  103DPPC   C25 5125   2.382   7.046   2.979
  103DPPC   C26 5126   2.339   6.954   3.094
  103DPPC   C27 5127   2.312   7.035   3.220
  103DPPC   C28 5128   2.301   6.924   3.325
  103DPPC   C29 5129   2.424   6.833   3.324
  103DPPC   C30 5130   2.419   6.716   3.422
  103DPPC   C31 5131   2.543   6.630   3.447
  103DPPC   C32 5132   2.674   7.708   1.986
  103DPPC   O33 5133   2.774   7.799   2.031
  103DPPC   C34 5134   2.745   7.931   2.019
  103DPPC   O35 5135   2.633   7.965   1.981
  103DPPC   C36 5136   2.847   8.032   2.073
  103DPPC   C37 5137   2.844   8.033   2.226
  103DPPC   C38 5138   2.920   8.146   2.294
  103DPPC   C39 5139   2.897   8.156   2.445
  103DPPC   C40 5140   3.007   8.249   2.495
  103DPPC   C41 5141   3.018   8.242   2.647
  103DPPC   C42 5142   2.886   8.297   2.702
  103DPPC   C43 5143   2.907   8.327   2.850
  103DPPC   C44 5144   2.786   8.368   2.935
  103DPPC   C45 5145   2.816   8.415   3.077
  103DPPC   C46 5146   2.679   8.462   3.126
  103DPPC   C47 5147   2.700   8.548   3.251
  103DPPC   C48 5148   2.560   8.591   3.296
  103DPPC   C49 5149   2.572   8.700   3.403
  103DPPC   C50 5150   2.631   8.640   3.531
  104DPPC    C1 5151   3.942   3.880   1.622
  104DPPC    C2 5152   4.008   3.653   1.622
  104DPPC    C3 5153   4.143   3.809   1.514
  104DPPC    N4 5154   4.058   3.791   1.633
  104DPPC    C5 5155   4.124   3.823   1.760
  104DPPC    C6 5156   4.229   3.733   1.826
  104DPPC    O7 5157   4.335   3.684   1.743
  104DPPC    P8 5158   4.370   3.536   1.797
  104DPPC    O9 5159   4.490   3.489   1.724
  104DPPC   O10 5160   4.242   3.463   1.787
  104DPPC   O11 5161   4.405   3.579   1.948
  104DPPC   C12 5162   4.543   3.601   1.978
  104DPPC   C13 5163   4.560   3.689   2.102
  104DPPC   O14 5164   4.698   3.705   2.138
  104DPPC   C15 5165   4.729   3.813   2.216
  104DPPC   O16 5166   4.676   3.923   2.205
  104DPPC   C17 5167   4.848   3.787   2.309
  104DPPC   C18 5168   4.868   3.648   2.371
  104DPPC   C19 5169   4.977   3.629   2.477
  104DPPC   C20 5170   4.948   3.519   2.579
  104DPPC   C21 5171   5.072   3.504   2.666
  104DPPC   C22 5172   5.024   3.458   2.804
  104DPPC   C23 5173   5.135   3.420   2.902
  104DPPC   C24 5174   5.077   3.378   3.037
  104DPPC   C25 5175   5.177   3.323   3.139
  104DPPC   C26 5176   5.133   3.329   3.286
  104DPPC   C27 5177   5.089   3.469   3.327
  104DPPC   C28 5178   5.034   3.462   3.470
  104DPPC   C29 5179   4.989   3.582   3.554
  104DPPC   C30 5180   4.896   3.541   3.668
  104DPPC   C31 5181   4.884   3.677   3.737
  104DPPC   C32 5182   4.492   3.602   2.208
  104DPPC   O33 5183   4.462   3.666   2.333
  104DPPC   C34 5184   4.369   3.610   2.415
  104DPPC   O35 5185   4.293   3.522   2.374
  104DPPC   C36 5186   4.353   3.688   2.546
  104DPPC   C37 5187   4.484   3.650   2.616
  104DPPC   C38 5188   4.511   3.763   2.717
  104DPPC   C39 5189   4.635   3.737   2.802
  104DPPC   C40 5190   4.623   3.601   2.872
  104DPPC   C41 5191   4.712   3.599   2.996
  104DPPC   C42 5192   4.694   3.717   3.092
  104DPPC   C43 5193   4.773   3.697   3.221
  104DPPC   C44 5194   4.802   3.828   3.295
  104DPPC   C45 5195   4.672   3.894   3.341
  104DPPC   C46 5196   4.679   3.998   3.454
  104DPPC   C47 5197   4.542   4.009   3.522
  104DPPC   C48 5198   4.535   4.095   3.648
  104DPPC   C49 5199   4.526   4.240   3.601
  104DPPC   C50 5200   4.544   4.332   3.722
  105DPPC    C1 5201   4.517   5.067   1.829
  105DPPC    C2 5202   4.526   4.918   1.649
  105DPPC    C3 5203   4.574   5.160   1.615
  105DPPC    N4 5204   4.586   5.042   1.702
  105DPPC    C5 5205   4.731   5.016   1.701
  105DPPC    C6 5206   4.788   4.936   1.818
  105DPPC    O7 5207   4.837   5.016   1.926
  105DPPC    P8 5208   4.917   4.919   2.027
  105DPPC    O9 5209   4.994   5.021   2.101
  105DPPC   O10 5210   4.989   4.824   1.939
  105DPPC   O11 5211   4.798   4.846   2.107
  105DPPC   C12 5212   4.787   4.900   2.239
  105DPPC   C13 5213   4.664   4.861   2.321
  105DPPC   O14 5214   4.616   4.960   2.413
  105DPPC   C15 5215   4.533   5.049   2.353
  105DPPC   O16 5216   4.460   5.006   2.264
  105DPPC   C17 5217   4.505   5.176   2.435
  105DPPC   C18 5218   4.355   5.194   2.457
  105DPPC   C19 5219   4.342   5.309   2.557
  105DPPC   C20 5220   4.387   5.437   2.485
  105DPPC   C21 5221   4.383   5.557   2.580
  105DPPC   C22 5222   4.440   5.676   2.502
  105DPPC   C23 5223   4.419   5.810   2.574
  105DPPC   C24 5224   4.512   5.815   2.695
  105DPPC   C25 5225   4.480   5.938   2.780
  105DPPC   C26 5226   4.346   5.910   2.848
  105DPPC   C27 5227   4.306   6.041   2.918
  105DPPC   C28 5228   4.160   6.021   2.958
  105DPPC   C29 5229   4.091   6.136   3.033
  105DPPC   C30 5230   4.124   6.271   2.969
  105DPPC   C31 5231   4.015   6.364   3.021
  105DPPC   C32 5232   4.687   4.719   2.372
  105DPPC   O33 5233   4.805   4.714   2.453
  105DPPC   C34 5234   4.834   4.595   2.512
  105DPPC   O35 5235   4.767   4.492   2.496
  105DPPC   C36 5236   4.981   4.587   2.553
  105DPPC   C37 5237   4.985   4.557   2.703
  105DPPC   C38 5238   4.940   4.682   2.781
  105DPPC   C39 5239   4.953   4.662   2.932
  105DPPC   C40 5240   4.879   4.770   3.011
  105DPPC   C41 5241   4.902   4.757   3.162
  105DPPC   C42 5242   4.862   4.890   3.225
  105DPPC   C43 5243   4.869   4.893   3.378
  105DPPC   C44 5244   4.804   5.018   3.438
  105DPPC   C45 5245   4.849   5.020   3.584
  105DPPC   C46 5246   4.799   4.900   3.665
  105DPPC   C47 5247   4.866   4.910   3.802
  105DPPC   C48 5248   4.837   4.791   3.893
  105DPPC   C49 5249   4.909   4.806   4.027
  105DPPC   C50 5250   5.061   4.818   4.018
  106DPPC    C1 5251   9.169   0.492   1.241
  106DPPC    C2 5252   9.015   0.384   1.378
  106DPPC    C3 5253   9.165   0.249   1.264
  106DPPC    N4 5254   9.155   0.378   1.334
  106DPPC    C5 5255   9.257   0.388   1.438
  106DPPC    C6 5256   9.408   0.376   1.415
  106DPPC    O7 5257   9.476   0.449   1.518
  106DPPC    P8 5258   9.635   0.426   1.505
  106DPPC    O9 5259   9.668   0.463   1.366
  106DPPC   O10 5260   9.702   0.310   1.568
  106DPPC   O11 5261   9.671   0.556   1.593
  106DPPC   C12 5262   9.659   0.536   1.734
  106DPPC   C13 5263   9.570   0.641   1.800
  106DPPC   O14 5264   9.629   0.697   1.918
  106DPPC   C15 5265   9.661   0.829   1.914
  106DPPC   O16 5266   9.633   0.891   1.812
  106DPPC   C17 5267   9.725   0.896   2.035
  106DPPC   C18 5268   9.655   0.850   2.163
  106DPPC   C19 5269   9.749   0.855   2.284
  106DPPC   C20 5270   9.691   0.806   2.417
  106DPPC   C21 5271   9.800   0.847   2.516
  106DPPC   C22 5272   9.897   0.731   2.536
  106DPPC   C23 5273  10.011   0.786   2.622
  106DPPC   C24 5274  10.104   0.871   2.535
  106DPPC   C25 5275  10.245   0.858   2.594
  106DPPC   C26 5276  10.359   0.911   2.507
  106DPPC   C27 5277  10.498   0.895   2.569
  106DPPC   C28 5278  10.485   0.945   2.713
  106DPPC   C29 5279  10.618   0.938   2.789
  106DPPC   C30 5280  10.591   0.992   2.930
  106DPPC   C31 5281  10.565   1.143   2.925
  106DPPC   C32 5282   9.432   0.575   1.811
  106DPPC   O33 5283   9.434   0.444   1.868
  106DPPC   C34 5284   9.317   0.377   1.846
  106DPPC   O35 5285   9.221   0.440   1.803
  106DPPC   C36 5286   9.310   0.231   1.893
  106DPPC   C37 5287   9.366   0.206   2.033
  106DPPC   C38 5288   9.286   0.280   2.140
  106DPPC   C39 5289   9.360   0.394   2.210
  106DPPC   C40 5290   9.267   0.451   2.318
  106DPPC   C41 5291   9.206   0.345   2.409
  106DPPC   C42 5292   9.106   0.427   2.491
  106DPPC   C43 5293   9.094   0.361   2.628
  106DPPC   C44 5294   9.015   0.444   2.730
  106DPPC   C45 5295   9.005   0.362   2.858
  106DPPC   C46 5296   8.954   0.455   2.968
  106DPPC   C47 5297   8.921   0.394   3.105
  106DPPC   C48 5298   8.806   0.293   3.105
  106DPPC   C49 5299   8.793   0.243   3.249
  106DPPC   C50 5300   8.787   0.364   3.343
  107DPPC    C1 5301   6.209   7.841   2.096
  107DPPC    C2 5302   6.168   7.937   1.892
  107DPPC    C3 5303   6.085   8.051   2.097
  107DPPC    N4 5304   6.192   7.972   2.032
  107DPPC    C5 5305   6.327   8.028   2.021
  107DPPC    C6 5306   6.370   8.117   2.139
  107DPPC    O7 5307   6.299   8.241   2.141
  107DPPC    P8 5308   6.397   8.350   2.074
  107DPPC    O9 5309   6.323   8.387   1.951
  107DPPC   O10 5310   6.533   8.290   2.076
  107DPPC   O11 5311   6.388   8.468   2.182
  107DPPC   C12 5312   6.247   8.482   2.202
  107DPPC   C13 5313   6.192   8.519   2.340
  107DPPC   O14 5314   6.230   8.653   2.376
  107DPPC   C15 5315   6.137   8.748   2.403
  107DPPC   O16 5316   6.032   8.740   2.340
  107DPPC   C17 5317   6.192   8.881   2.456
  107DPPC   C18 5318   6.269   8.866   2.587
  107DPPC   C19 5319   6.187   8.815   2.706
  107DPPC   C20 5320   6.076   8.912   2.748
  107DPPC   C21 5321   6.140   8.999   2.856
  107DPPC   C22 5322   6.059   9.125   2.892
  107DPPC   C23 5323   6.110   9.235   2.985
  107DPPC   C24 5324   6.223   9.310   2.915
  107DPPC   C25 5325   6.287   9.422   2.997
  107DPPC   C26 5326   6.187   9.534   3.027
  107DPPC   C27 5327   6.158   9.610   2.897
  107DPPC   C28 5328   6.051   9.715   2.927
  107DPPC   C29 5329   6.046   9.837   2.836
  107DPPC   C30 5330   5.996   9.792   2.698
  107DPPC   C31 5331   5.982   9.901   2.592
  107DPPC   C32 5332   6.243   8.405   2.429
  107DPPC   O33 5333   6.175   8.398   2.555
  107DPPC   C34 5334   6.041   8.374   2.562
  107DPPC   O35 5335   5.982   8.343   2.459
  107DPPC   C36 5336   5.975   8.401   2.698
  107DPPC   C37 5337   6.078   8.457   2.797
  107DPPC   C38 5338   6.017   8.502   2.930
  107DPPC   C39 5339   6.124   8.575   3.011
  107DPPC   C40 5340   6.070   8.703   3.074
  107DPPC   C41 5341   6.176   8.779   3.154
  107DPPC   C42 5342   6.215   8.691   3.273
  107DPPC   C43 5343   6.108   8.675   3.382
  107DPPC   C44 5344   6.180   8.637   3.511
  107DPPC   C45 5345   6.081   8.609   3.624
  107DPPC   C46 5346   6.166   8.576   3.748
  107DPPC   C47 5347   6.070   8.586   3.866
  107DPPC   C48 5348   5.994   8.719   3.863
  107DPPC   C49 5349   5.846   8.694   3.889
  107DPPC   C50 5350   5.756   8.815   3.867
  108DPPC    C1 5351   7.190   0.518   1.250
  108DPPC    C2 5352   7.038   0.705   1.275
  108DPPC    C3 5353   7.046   0.580   1.075
  108DPPC    N4 5354   7.055   0.569   1.221
  108DPPC    C5 5355   6.939   0.487   1.256
  108DPPC    C6 5356   6.957   0.379   1.363
  108DPPC    O7 5357   6.942   0.429   1.496
  108DPPC    P8 5358   6.959   0.299   1.589
  108DPPC    O9 5359   7.103   0.267   1.587
  108DPPC   O10 5360   6.854   0.207   1.541
  108DPPC   O11 5361   6.907   0.369   1.724
  108DPPC   C12 5362   7.009   0.451   1.781
  108DPPC   C13 5363   6.964   0.542   1.895
  108DPPC   O14 5364   7.043   0.660   1.916
  108DPPC   C15 5365   6.962   0.769   1.918
  108DPPC   O16 5366   6.849   0.762   1.869
  108DPPC   C17 5367   7.012   0.900   1.978
  108DPPC   C18 5368   6.982   0.918   2.127
  108DPPC   C19 5369   6.999   1.067   2.161
  108DPPC   C20 5370   6.933   1.104   2.293
  108DPPC   C21 5371   7.039   1.055   2.392
  108DPPC   C22 5372   6.999   1.080   2.538
  108DPPC   C23 5373   6.872   1.012   2.591
  108DPPC   C24 5374   6.898   0.927   2.716
  108DPPC   C25 5375   6.964   1.031   2.808
  108DPPC   C26 5376   7.026   0.963   2.929
  108DPPC   C27 5377   6.931   0.880   3.016
  108DPPC   C28 5378   6.985   0.838   3.153
  108DPPC   C29 5379   6.891   0.737   3.219
  108DPPC   C30 5380   6.951   0.727   3.360
  108DPPC   C31 5381   6.872   0.648   3.464
  108DPPC   C32 5382   6.977   0.438   2.006
  108DPPC   O33 5383   6.944   0.468   2.142
  108DPPC   C34 5384   6.957   0.359   2.222
  108DPPC   O35 5385   7.016   0.257   2.188
  108DPPC   C36 5386   6.954   0.384   2.373
  108DPPC   C37 5387   6.914   0.260   2.453
  108DPPC   C38 5388   6.936   0.292   2.601
  108DPPC   C39 5389   6.898   0.170   2.685
  108DPPC   C40 5390   6.986   0.047   2.659
  108DPPC   C41 5391   6.935  -0.079   2.729
  108DPPC   C42 5392   6.938  -0.054   2.880
  108DPPC   C43 5393   6.880  -0.171   2.961
  108DPPC   C44 5394   6.915  -0.169   3.110
  108DPPC   C45 5395   6.868  -0.298   3.178
  108DPPC   C46 5396   6.911  -0.299   3.325
  108DPPC   C47 5397   6.829  -0.201   3.409
  108DPPC   C48 5398   6.870  -0.203   3.557
  108DPPC   C49 5399   7.016  -0.179   3.597
  108DPPC   C50 5400   7.028  -0.100   3.728
  109DPPC    C1 5401   9.377   5.989   0.508
  109DPPC    C2 5402   9.424   5.977   0.736
  109DPPC    C3 5403   9.497   6.161   0.603
  109DPPC    N4 5404   9.384   6.071   0.630
  109DPPC    C5 5405   9.254   6.138   0.645
  109DPPC    C6 5406   9.211   6.165   0.789
  109DPPC    O7 5407   9.139   6.053   0.840
  109DPPC    P8 5408   9.030   6.090   0.952
  109DPPC    O9 5409   8.933   5.981   0.930
  109DPPC   O10 5410   8.994   6.234   0.943
  109DPPC   O11 5411   9.122   6.079   1.083
  109DPPC   C12 5412   9.105   5.948   1.137
  109DPPC   C13 5413   9.218   5.894   1.225
  109DPPC   O14 5414   9.194   5.764   1.281
  109DPPC   C15 5415   9.297   5.692   1.334
  109DPPC   O16 5416   9.414   5.720   1.306
  109DPPC   C17 5417   9.257   5.557   1.393
  109DPPC   C18 5418   9.183   5.579   1.525
  109DPPC   C19 5419   9.269   5.661   1.621
  109DPPC   C20 5420   9.210   5.630   1.759
  109DPPC   C21 5421   9.281   5.690   1.880
  109DPPC   C22 5422   9.207   5.671   2.012
  109DPPC   C23 5423   9.274   5.754   2.122
  109DPPC   C24 5424   9.212   5.729   2.260
  109DPPC   C25 5425   9.284   5.792   2.379
  109DPPC   C26 5426   9.193   5.802   2.502
  109DPPC   C27 5427   9.259   5.826   2.638
  109DPPC   C28 5428   9.142   5.801   2.732
  109DPPC   C29 5429   9.183   5.805   2.880
  109DPPC   C30 5430   9.059   5.793   2.968
  109DPPC   C31 5431   9.101   5.811   3.114
  109DPPC   C32 5432   9.248   6.006   1.325
  109DPPC   O33 5433   9.154   6.023   1.432
  109DPPC   C34 5434   9.148   6.149   1.485
  109DPPC   O35 5435   9.234   6.231   1.453
  109DPPC   C36 5436   9.066   6.153   1.614
  109DPPC   C37 5437   9.156   6.133   1.736
  109DPPC   C38 5438   9.098   6.183   1.868
  109DPPC   C39 5439   9.205   6.185   1.978
  109DPPC   C40 5440   9.145   6.227   2.113
  109DPPC   C41 5441   9.260   6.225   2.214
  109DPPC   C42 5442   9.188   6.256   2.345
  109DPPC   C43 5443   9.284   6.273   2.463
  109DPPC   C44 5444   9.380   6.154   2.474
  109DPPC   C45 5445   9.464   6.183   2.598
  109DPPC   C46 5446   9.566   6.073   2.626
  109DPPC   C47 5447   9.657   6.114   2.742
  109DPPC   C48 5448   9.768   6.010   2.758
  109DPPC   C49 5449   9.840   6.029   2.891
  109DPPC   C50 5450   9.935   5.910   2.876
  110DPPC    C1 5451   1.394   3.395   0.995
  110DPPC    C2 5452   1.607   3.313   1.105
  110DPPC    C3 5453   1.610   3.486   0.945
  110DPPC    N4 5454   1.527   3.423   1.049
  110DPPC    C5 5455   1.512   3.529   1.150
  110DPPC    C6 5456   1.421   3.499   1.269
  110DPPC    O7 5457   1.382   3.610   1.350
  110DPPC    P8 5458   1.245   3.683   1.307
  110DPPC    O9 5459   1.185   3.594   1.205
  110DPPC   O10 5460   1.262   3.828   1.284
  110DPPC   O11 5461   1.184   3.670   1.456
  110DPPC   C12 5462   1.119   3.543   1.465
  110DPPC   C13 5463   1.180   3.440   1.561
  110DPPC   O14 5464   1.105   3.318   1.572
  110DPPC   C15 5465   1.174   3.204   1.598
  110DPPC   O16 5466   1.284   3.176   1.550
  110DPPC   C17 5467   1.080   3.097   1.654
  110DPPC   C18 5468   1.092   3.118   1.805
  110DPPC   C19 5469   1.007   3.015   1.879
  110DPPC   C20 5470   1.023   3.039   2.029
  110DPPC   C21 5471   0.920   2.956   2.107
  110DPPC   C22 5472   0.918   3.001   2.253
  110DPPC   C23 5473   0.819   2.915   2.331
  110DPPC   C24 5474   0.681   2.918   2.265
  110DPPC   C25 5475   0.586   2.861   2.371
  110DPPC   C26 5476   0.613   2.947   2.494
  110DPPC   C27 5477   0.522   2.914   2.613
  110DPPC   C28 5478   0.539   3.020   2.722
  110DPPC   C29 5479   0.678   3.000   2.782
  110DPPC   C30 5480   0.722   3.093   2.896
  110DPPC   C31 5481   0.647   3.077   3.028
  110DPPC   C32 5482   1.215   3.512   1.691
  110DPPC   O33 5483   1.293   3.435   1.783
  110DPPC   C34 5484   1.307   3.498   1.903
  110DPPC   O35 5485   1.300   3.620   1.916
  110DPPC   C36 5486   1.376   3.420   2.015
  110DPPC   C37 5487   1.269   3.358   2.105
  110DPPC   C38 5488   1.334   3.274   2.216
  110DPPC   C39 5489   1.237   3.207   2.313
  110DPPC   C40 5490   1.295   3.144   2.439
  110DPPC   C41 5491   1.186   3.061   2.505
  110DPPC   C42 5492   1.254   2.980   2.616
  110DPPC   C43 5493   1.153   2.915   2.711
  110DPPC   C44 5494   1.240   2.854   2.822
  110DPPC   C45 5495   1.167   2.811   2.949
  110DPPC   C46 5496   1.120   2.934   3.026
  110DPPC   C47 5497   1.038   2.921   3.154
  110DPPC   C48 5498   1.009   3.062   3.206
  110DPPC   C49 5499   0.924   3.028   3.329
  110DPPC   C50 5500   0.845   3.156   3.357
  111DPPC    C1 5501   1.740   1.017   1.720
  111DPPC    C2 5502   1.766   1.079   1.488
  111DPPC    C3 5503   1.754   0.858   1.540
  111DPPC    N4 5504   1.699   0.987   1.582
  111DPPC    C5 5505   1.553   0.987   1.561
  111DPPC    C6 5506   1.462   0.871   1.602
  111DPPC    O7 5507   1.488   0.829   1.736
  111DPPC    P8 5508   1.390   0.704   1.762
  111DPPC    O9 5509   1.477   0.602   1.823
  111DPPC   O10 5510   1.325   0.659   1.636
  111DPPC   O11 5511   1.297   0.781   1.869
  111DPPC   C12 5512   1.383   0.795   1.982
  111DPPC   C13 5513   1.301   0.805   2.111
  111DPPC   O14 5514   1.369   0.872   2.218
  111DPPC   C15 5515   1.297   0.932   2.316
  111DPPC   O16 5516   1.175   0.922   2.308
  111DPPC   C17 5517   1.370   0.981   2.441
  111DPPC   C18 5518   1.427   1.116   2.398
  111DPPC   C19 5519   1.495   1.172   2.523
  111DPPC   C20 5520   1.541   1.316   2.500
  111DPPC   C21 5521   1.438   1.414   2.444
  111DPPC   C22 5522   1.504   1.551   2.432
  111DPPC   C23 5523   1.397   1.653   2.471
  111DPPC   C24 5524   1.322   1.633   2.603
  111DPPC   C25 5525   1.196   1.719   2.596
  111DPPC   C26 5526   1.107   1.708   2.720
  111DPPC   C27 5527   1.008   1.825   2.718
  111DPPC   C28 5528   0.960   1.838   2.863
  111DPPC   C29 5529   0.877   1.966   2.875
  111DPPC   C30 5530   0.822   1.991   3.016
  111DPPC   C31 5531   0.752   1.868   3.073
  111DPPC   C32 5532   1.232   0.669   2.119
  111DPPC   O33 5533   1.319   0.567   2.169
  111DPPC   C34 5534   1.298   0.434   2.148
  111DPPC   O35 5535   1.227   0.405   2.052
  111DPPC   C36 5536   1.365   0.325   2.232
  111DPPC   C37 5537   1.424   0.377   2.364
  111DPPC   C38 5538   1.316   0.443   2.449
  111DPPC   C39 5539   1.363   0.484   2.589
  111DPPC   C40 5540   1.250   0.560   2.660
  111DPPC   C41 5541   1.289   0.609   2.799
  111DPPC   C42 5542   1.313   0.492   2.895
  111DPPC   C43 5543   1.337   0.552   3.034
  111DPPC   C44 5544   1.219   0.617   3.106
  111DPPC   C45 5545   1.264   0.654   3.248
  111DPPC   C46 5546   1.304   0.801   3.257
  111DPPC   C47 5547   1.326   0.847   3.401
  111DPPC   C48 5548   1.348   0.998   3.393
  111DPPC   C49 5549   1.228   1.046   3.310
  111DPPC   C50 5550   1.209   1.196   3.329
  112DPPC    C1 5551   4.942   8.000   1.835
  112DPPC    C2 5552   5.115   8.013   1.990
  112DPPC    C3 5553   4.902   8.020   2.077
  112DPPC    N4 5554   4.981   7.956   1.970
  112DPPC    C5 5555   4.995   7.810   1.977
  112DPPC    C6 5556   4.878   7.711   1.970
  112DPPC    O7 5557   4.772   7.727   2.064
  112DPPC    P8 5558   4.668   7.605   2.057
  112DPPC    O9 5559   4.658   7.551   1.920
  112DPPC   O10 5560   4.547   7.642   2.135
  112DPPC   O11 5561   4.753   7.492   2.134
  112DPPC   C12 5562   4.689   7.470   2.259
  112DPPC   C13 5563   4.761   7.377   2.357
  112DPPC   O14 5564   4.680   7.306   2.452
  112DPPC   C15 5565   4.643   7.185   2.404
  112DPPC   O16 5566   4.665   7.147   2.288
  112DPPC   C17 5567   4.596   7.087   2.511
  112DPPC   C18 5568   4.676   7.096   2.641
  112DPPC   C19 5569   4.627   7.009   2.757
  112DPPC   C20 5570   4.620   6.863   2.713
  112DPPC   C21 5571   4.588   6.785   2.841
  112DPPC   C22 5572   4.448   6.804   2.901
  112DPPC   C23 5573   4.418   6.689   2.998
  112DPPC   C24 5574   4.291   6.725   3.076
  112DPPC   C25 5575   4.171   6.760   2.987
  112DPPC   C26 5576   4.044   6.771   3.072
  112DPPC   C27 5577   3.940   6.842   2.984
  112DPPC   C28 5578   3.831   6.882   3.084
  112DPPC   C29 5579   3.736   6.986   3.025
  112DPPC   C30 5580   3.627   7.034   3.121
  112DPPC   C31 5581   3.514   7.127   3.076
  112DPPC   C32 5582   4.871   7.468   2.412
  112DPPC   O33 5583   4.983   7.404   2.475
  112DPPC   C34 5584   5.096   7.462   2.523
  112DPPC   O35 5585   5.131   7.576   2.496
  112DPPC   C36 5586   5.186   7.369   2.605
  112DPPC   C37 5587   5.231   7.439   2.734
  112DPPC   C38 5588   5.321   7.352   2.822
  112DPPC   C39 5589   5.343   7.428   2.953
  112DPPC   C40 5590   5.426   7.348   3.053
  112DPPC   C41 5591   5.554   7.282   3.002
  112DPPC   C42 5592   5.665   7.387   2.991
  112DPPC   C43 5593   5.762   7.364   3.107
  112DPPC   C44 5594   5.865   7.477   3.099
  112DPPC   C45 5595   5.935   7.476   3.235
  112DPPC   C46 5596   5.996   7.615   3.259
  112DPPC   C47 5597   6.044   7.624   3.404
  112DPPC   C48 5598   5.919   7.613   3.491
  112DPPC   C49 5599   5.968   7.601   3.635
  112DPPC   C50 5600   5.858   7.643   3.732
  113DPPC    C1 5601   0.984   1.497   1.582
  113DPPC    C2 5602   1.046   1.538   1.803
  113DPPC    C3 5603   0.842   1.451   1.757
  113DPPC    N4 5604   0.983   1.438   1.717
  113DPPC    C5 5605   1.032   1.300   1.730
  113DPPC    C6 5606   1.163   1.268   1.657
  113DPPC    O7 5607   1.272   1.349   1.702
  113DPPC    P8 5608   1.413   1.301   1.642
  113DPPC    O9 5609   1.526   1.397   1.644
  113DPPC   O10 5610   1.388   1.225   1.517
  113DPPC   O11 5611   1.433   1.202   1.768
  113DPPC   C12 5612   1.474   1.294   1.869
  113DPPC   C13 5613   1.479   1.234   2.009
  113DPPC   O14 5614   1.585   1.142   2.040
  113DPPC   C15 5615   1.710   1.189   2.065
  113DPPC   O16 5616   1.730   1.304   2.026
  113DPPC   C17 5617   1.809   1.079   2.103
  113DPPC   C18 5618   1.921   1.121   2.199
  113DPPC   C19 5619   1.860   1.127   2.339
  113DPPC   C20 5620   1.972   1.165   2.436
  113DPPC   C21 5621   1.920   1.163   2.579
  113DPPC   C22 5622   2.035   1.170   2.679
  113DPPC   C23 5623   1.979   1.169   2.821
  113DPPC   C24 5624   2.092   1.165   2.925
  113DPPC   C25 5625   2.039   1.152   3.068
  113DPPC   C26 5626   2.131   1.069   3.158
  113DPPC   C27 5627   2.061   1.053   3.293
  113DPPC   C28 5628   1.919   1.000   3.273
  113DPPC   C29 5629   1.903   0.853   3.231
  113DPPC   C30 5630   1.757   0.815   3.258
  113DPPC   C31 5631   1.742   0.665   3.232
  113DPPC   C32 5632   1.345   1.168   2.046
  113DPPC   O33 5633   1.246   1.263   2.085
  113DPPC   C34 5634   1.131   1.195   2.113
  113DPPC   O35 5635   1.099   1.097   2.045
  113DPPC   C36 5636   1.027   1.287   2.176
  113DPPC   C37 5637   0.963   1.224   2.299
  113DPPC   C38 5638   0.850   1.316   2.347
  113DPPC   C39 5639   0.810   1.273   2.488
  113DPPC   C40 5640   0.719   1.380   2.548
  113DPPC   C41 5641   0.650   1.341   2.679
  113DPPC   C42 5642   0.760   1.289   2.773
  113DPPC   C43 5643   0.709   1.290   2.918
  113DPPC   C44 5644   0.581   1.210   2.940
  113DPPC   C45 5645   0.608   1.065   2.981
  113DPPC   C46 5646   0.481   0.987   3.013
  113DPPC   C47 5647   0.521   0.842   3.045
  113DPPC   C48 5648   0.395   0.757   3.062
  113DPPC   C49 5649   0.433   0.614   3.102
  113DPPC   C50 5650   0.297   0.543   3.098
  114DPPC    C1 5651   1.166   3.901   1.806
  114DPPC    C2 5652   1.261   3.966   1.591
  114DPPC    C3 5653   1.207   4.126   1.755
  114DPPC    N4 5654   1.260   3.990   1.736
  114DPPC    C5 5655   1.385   3.967   1.810
  114DPPC    C6 5656   1.517   4.032   1.767
  114DPPC    O7 5657   1.626   3.981   1.844
  114DPPC    P8 5658   1.759   4.049   1.782
  114DPPC    O9 5659   1.723   4.096   1.647
  114DPPC   O10 5660   1.873   3.954   1.790
  114DPPC   O11 5661   1.765   4.167   1.891
  114DPPC   C12 5662   1.804   4.098   2.010
  114DPPC   C13 5663   1.745   4.166   2.133
  114DPPC   O14 5664   1.794   4.106   2.254
  114DPPC   C15 5665   1.908   4.154   2.311
  114DPPC   O16 5666   1.990   4.208   2.237
  114DPPC   C17 5667   1.957   4.091   2.441
  114DPPC   C18 5668   2.042   3.966   2.416
  114DPPC   C19 5669   2.167   3.972   2.504
  114DPPC   C20 5670   2.255   3.848   2.500
  114DPPC   C21 5671   2.354   3.834   2.616
  114DPPC   C22 5672   2.277   3.852   2.747
  114DPPC   C23 5673   2.377   3.887   2.857
  114DPPC   C24 5674   2.299   3.974   2.956
  114DPPC   C25 5675   2.399   4.050   3.043
  114DPPC   C26 5676   2.349   4.127   3.165
  114DPPC   C27 5677   2.459   4.210   3.231
  114DPPC   C28 5678   2.408   4.285   3.354
  114DPPC   C29 5679   2.522   4.359   3.424
  114DPPC   C30 5680   2.599   4.454   3.332
  114DPPC   C31 5681   2.709   4.506   3.424
  114DPPC   C32 5682   1.597   4.138   2.109
  114DPPC   O33 5683   1.505   4.237   2.158
  114DPPC   C34 5684   1.377   4.192   2.163
  114DPPC   O35 5685   1.338   4.123   2.068
  114DPPC   C36 5686   1.275   4.262   2.253
  114DPPC   C37 5687   1.217   4.165   2.357
  114DPPC   C38 5688   1.126   4.238   2.456
  114DPPC   C39 5689   1.068   4.126   2.542
  114DPPC   C40 5690   1.170   4.069   2.641
  114DPPC   C41 5691   1.108   3.966   2.736
  114DPPC   C42 5692   0.995   4.018   2.825
  114DPPC   C43 5693   1.054   4.115   2.928
  114DPPC   C44 5694   0.946   4.192   3.005
  114DPPC   C45 5695   1.011   4.319   3.061
  114DPPC   C46 5696   0.921   4.406   3.148
  114DPPC   C47 5697   0.845   4.501   3.056
  114DPPC   C48 5698   0.692   4.488   3.053
  114DPPC   C49 5699   0.619   4.587   2.962
  114DPPC   C50 5700   0.471   4.548   2.961
  115DPPC    C1 5701   4.051   3.127   2.150
  115DPPC    C2 5702   3.952   3.267   1.989
  115DPPC    C3 5703   3.844   3.239   2.197
  115DPPC    N4 5704   3.976   3.252   2.133
  115DPPC    C5 5705   4.060   3.357   2.192
  115DPPC    C6 5706   4.047   3.498   2.134
  115DPPC    O7 5707   3.927   3.565   2.173
  115DPPC    P8 5708   3.918   3.712   2.109
  115DPPC    O9 5709   3.813   3.677   2.011
  115DPPC   O10 5710   4.063   3.731   2.086
  115DPPC   O11 5711   3.859   3.789   2.237
  115DPPC   C12 5712   3.979   3.810   2.311
  115DPPC   C13 5713   3.974   3.905   2.431
  115DPPC   O14 5714   4.099   3.918   2.501
  115DPPC   C15 5715   4.151   4.043   2.512
  115DPPC   O16 5716   4.103   4.134   2.444
  115DPPC   C17 5717   4.272   4.059   2.604
  115DPPC   C18 5718   4.311   4.207   2.615
  115DPPC   C19 5719   4.454   4.214   2.667
  115DPPC   C20 5720   4.492   4.356   2.707
  115DPPC   C21 5721   4.629   4.368   2.774
  115DPPC   C22 5722   4.629   4.284   2.902
  115DPPC   C23 5723   4.774   4.251   2.939
  115DPPC   C24 5724   4.794   4.238   3.090
  115DPPC   C25 5725   4.934   4.187   3.124
  115DPPC   C26 5726   4.949   4.183   3.276
  115DPPC   C27 5727   5.095   4.163   3.317
  115DPPC   C28 5728   5.118   4.156   3.468
  115DPPC   C29 5729   5.059   4.029   3.529
  115DPPC   C30 5730   5.058   4.035   3.682
  115DPPC   C31 5731   4.934   4.115   3.722
  115DPPC   C32 5732   3.848   3.853   2.500
  115DPPC   O33 5733   3.805   3.930   2.612
  115DPPC   C34 5734   3.749   4.052   2.594
  115DPPC   O35 5735   3.728   4.111   2.488
  115DPPC   C36 5736   3.724   4.123   2.728
  115DPPC   C37 5737   3.832   4.108   2.836
  115DPPC   C38 5738   3.835   3.975   2.911
  115DPPC   C39 5739   3.928   3.996   3.030
  115DPPC   C40 5740   4.063   4.043   2.974
  115DPPC   C41 5741   4.163   4.064   3.088
  115DPPC   C42 5742   4.129   4.187   3.172
  115DPPC   C43 5743   4.213   4.165   3.298
  115DPPC   C44 5744   4.184   4.279   3.396
  115DPPC   C45 5745   4.033   4.293   3.414
  115DPPC   C46 5746   4.001   4.411   3.506
  115DPPC   C47 5747   3.851   4.425   3.529
  115DPPC   C48 5748   3.789   4.546   3.600
  115DPPC   C49 5749   3.638   4.521   3.615
  115DPPC   C50 5750   3.563   4.626   3.696
  116DPPC    C1 5751   6.795   8.431   2.199
  116DPPC    C2 5752   7.017   8.408   2.260
  116DPPC    C3 5753   6.849   8.263   2.342
  116DPPC    N4 5754   6.899   8.329   2.220
  116DPPC    C5 5755   6.927   8.245   2.103
  116DPPC    C6 5756   6.820   8.139   2.077
  116DPPC    O7 5757   6.835   8.019   2.153
  116DPPC    P8 5758   6.715   7.916   2.122
  116DPPC    O9 5759   6.757   7.774   2.126
  116DPPC   O10 5760   6.643   7.970   2.005
  116DPPC   O11 5761   6.630   7.950   2.254
  116DPPC   C12 5762   6.625   7.840   2.346
  116DPPC   C13 5763   6.531   7.863   2.464
  116DPPC   O14 5764   6.395   7.872   2.419
  116DPPC   C15 5765   6.279   7.892   2.486
  116DPPC   O16 5766   6.170   7.887   2.430
  116DPPC   C17 5767   6.294   7.867   2.636
  116DPPC   C18 5768   6.255   7.981   2.731
  116DPPC   C19 5769   6.304   7.938   2.869
  116DPPC   C20 5770   6.272   8.054   2.964
  116DPPC   C21 5771   6.375   8.163   2.935
  116DPPC   C22 5772   6.343   8.283   3.025
  116DPPC   C23 5773   6.334   8.236   3.170
  116DPPC   C24 5774   6.350   8.352   3.269
  116DPPC   C25 5775   6.378   8.316   3.415
  116DPPC   C26 5776   6.269   8.232   3.482
  116DPPC   C27 5777   6.314   8.182   3.619
  116DPPC   C28 5778   6.229   8.062   3.664
  116DPPC   C29 5779   6.262   8.001   3.800
  116DPPC   C30 5780   6.163   7.894   3.845
  116DPPC   C31 5781   6.023   7.949   3.876
  116DPPC   C32 5782   6.585   7.987   2.536
  116DPPC   O33 5783   6.702   7.943   2.605
  116DPPC   C34 5784   6.751   8.044   2.682
  116DPPC   O35 5785   6.681   8.142   2.704
  116DPPC   C36 5786   6.875   8.009   2.765
  116DPPC   C37 5787   6.999   7.982   2.679
  116DPPC   C38 5788   7.118   7.956   2.772
  116DPPC   C39 5789   7.142   8.057   2.884
  116DPPC   C40 5790   7.245   8.018   2.989
  116DPPC   C41 5791   7.374   7.969   2.921
  116DPPC   C42 5792   7.463   8.086   2.877
  116DPPC   C43 5793   7.540   8.162   2.984
  116DPPC   C44 5794   7.677   8.098   3.009
  116DPPC   C45 5795   7.746   8.158   3.132
  116DPPC   C46 5796   7.772   8.307   3.108
  116DPPC   C47 5797   7.874   8.357   3.211
  116DPPC   C48 5798   7.808   8.401   3.342
  116DPPC   C49 5799   7.894   8.503   3.417
  116DPPC   C50 5800   8.028   8.444   3.462
  117DPPC    C1 5801   5.729   4.494   1.929
  117DPPC    C2 5802   5.868   4.533   1.759
  117DPPC    C3 5803   5.915   4.589   1.992
  117DPPC    N4 5804   5.872   4.485   1.898
  117DPPC    C5 5805   5.908   4.344   1.920
  117DPPC    C6 5806   6.035   4.294   1.850
  117DPPC    O7 5807   6.052   4.153   1.862
  117DPPC    P8 5808   6.180   4.115   1.772
  117DPPC    O9 5809   6.167   4.188   1.643
  117DPPC   O10 5810   6.241   3.981   1.780
  117DPPC   O11 5811   6.289   4.202   1.851
  117DPPC   C12 5812   6.342   4.137   1.967
  117DPPC   C13 5813   6.449   4.222   2.037
  117DPPC   O14 5814   6.545   4.149   2.114
  117DPPC   C15 5815   6.643   4.074   2.056
  117DPPC   O16 5816   6.653   4.072   1.934
  117DPPC   C17 5817   6.738   3.991   2.143
  117DPPC   C18 5818   6.697   3.995   2.290
  117DPPC   C19 5819   6.816   3.949   2.374
  117DPPC   C20 5820   6.818   3.983   2.524
  117DPPC   C21 5821   6.883   3.875   2.611
  117DPPC   C22 5822   6.829   3.738   2.573
  117DPPC   C23 5823   6.895   3.625   2.652
  117DPPC   C24 5824   6.876   3.651   2.802
  117DPPC   C25 5825   6.922   3.526   2.876
  117DPPC   C26 5826   6.838   3.405   2.833
  117DPPC   C27 5827   6.751   3.349   2.946
  117DPPC   C28 5828   6.672   3.226   2.901
  117DPPC   C29 5829   6.599   3.172   3.024
  117DPPC   C30 5830   6.478   3.083   2.997
  117DPPC   C31 5831   6.404   3.036   3.122
  117DPPC   C32 5832   6.377   4.338   2.107
  117DPPC   O33 5833   6.281   4.296   2.205
  117DPPC   C34 5834   6.205   4.403   2.243
  117DPPC   O35 5835   6.198   4.496   2.162
  117DPPC   C36 5836   6.106   4.370   2.354
  117DPPC   C37 5837   5.976   4.318   2.293
  117DPPC   C38 5838   5.873   4.301   2.405
  117DPPC   C39 5839   5.869   4.431   2.486
  117DPPC   C40 5840   5.744   4.514   2.460
  117DPPC   C41 5841   5.747   4.626   2.564
  117DPPC   C42 5842   5.752   4.560   2.702
  117DPPC   C43 5843   5.710   4.666   2.805
  117DPPC   C44 5844   5.742   4.618   2.947
  117DPPC   C45 5845   5.733   4.724   3.057
  117DPPC   C46 5846   5.760   4.652   3.189
  117DPPC   C47 5847   5.707   4.749   3.296
  117DPPC   C48 5848   5.755   4.706   3.434
  117DPPC   C49 5849   5.723   4.557   3.434
  117DPPC   C50 5850   5.768   4.503   3.570
  118DPPC    C1 5851   4.689   0.085   1.604
  118DPPC    C2 5852   4.916   0.035   1.631
  118DPPC    C3 5853   4.816   0.265   1.689
  118DPPC    N4 5854   4.807   0.118   1.685
  118DPPC    C5 5855   4.795   0.087   1.828
  118DPPC    C6 5856   4.771  -0.058   1.871
  118DPPC    O7 5857   4.629  -0.077   1.871
  118DPPC    P8 5858   4.599  -0.229   1.915
  118DPPC    O9 5859   4.668  -0.307   1.810
  118DPPC   O10 5860   4.454  -0.245   1.942
  118DPPC   O11 5861   4.680  -0.218   2.053
  118DPPC   C12 5862   4.580  -0.209   2.155
  118DPPC   C13 5863   4.627  -0.194   2.300
  118DPPC   O14 5864   4.643  -0.319   2.368
  118DPPC   C15 5865   4.767  -0.331   2.423
  118DPPC   O16 5866   4.840  -0.232   2.427
  118DPPC   C17 5867   4.799  -0.457   2.504
  118DPPC   C18 5868   4.810  -0.590   2.429
  118DPPC   C19 5869   4.900  -0.680   2.514
  118DPPC   C20 5870   4.833  -0.712   2.648
  118DPPC   C21 5871   4.785  -0.855   2.673
  118DPPC   C22 5872   4.697  -0.876   2.796
  118DPPC   C23 5873   4.620  -1.007   2.814
  118DPPC   C24 5874   4.539  -1.015   2.944
  118DPPC   C25 5875   4.453  -1.140   2.932
  118DPPC   C26 5876   4.347  -1.169   3.038
  118DPPC   C27 5877   4.265  -1.295   3.012
  118DPPC   C28 5878   4.178  -1.330   3.132
  118DPPC   C29 5879   4.254  -1.330   3.265
  118DPPC   C30 5880   4.160  -1.335   3.386
  118DPPC   C31 5881   4.064  -1.452   3.363
  118DPPC   C32 5882   4.530  -0.094   2.363
  118DPPC   O33 5883   4.399  -0.149   2.383
  118DPPC   C34 5884   4.311  -0.051   2.417
  118DPPC   O35 5885   4.341   0.064   2.449
  118DPPC   C36 5886   4.169  -0.101   2.444
  118DPPC   C37 5887   4.185  -0.210   2.550
  118DPPC   C38 5888   4.047  -0.262   2.591
  118DPPC   C39 5889   4.063  -0.369   2.699
  118DPPC   C40 5890   3.920  -0.405   2.739
  118DPPC   C41 5891   3.902  -0.518   2.841
  118DPPC   C42 5892   3.756  -0.515   2.885
  118DPPC   C43 5893   3.719  -0.637   2.969
  118DPPC   C44 5894   3.567  -0.638   2.980
  118DPPC   C45 5895   3.529  -0.754   3.072
  118DPPC   C46 5896   3.376  -0.764   3.072
  118DPPC   C47 5897   3.343  -0.884   3.162
  118DPPC   C48 5898   3.325  -0.835   3.305
  118DPPC   C49 5899   3.215  -0.729   3.319
  118DPPC   C50 5900   3.090  -0.790   3.255
  119DPPC    C1 5901   0.442   6.210   0.628
  119DPPC    C2 5902   0.556   6.115   0.827
  119DPPC    C3 5903   0.619   6.325   0.735
  119DPPC    N4 5904   0.506   6.234   0.758
  119DPPC    C5 5905   0.413   6.300   0.851
  119DPPC    C6 5906   0.270   6.248   0.864
  119DPPC    O7 5907   0.209   6.296   0.984
  119DPPC    P8 5908   0.083   6.199   1.011
  119DPPC    O9 5909   0.129   6.060   0.991
  119DPPC   O10 5910  -0.023   6.266   0.933
  119DPPC   O11 5911   0.063   6.212   1.170
  119DPPC   C12 5912   0.163   6.122   1.218
  119DPPC   C13 5913   0.209   6.155   1.360
  119DPPC   O14 5914   0.123   6.126   1.472
  119DPPC   C15 5915   0.149   6.003   1.523
  119DPPC   O16 5916   0.248   5.943   1.482
  119DPPC   C17 5917   0.052   5.938   1.622
  119DPPC   C18 5918   0.080   5.976   1.768
  119DPPC   C19 5919   0.030   6.111   1.819
  119DPPC   C20 5920   0.114   6.126   1.946
  119DPPC   C21 5921   0.084   6.264   2.005
  119DPPC   C22 5922   0.167   6.270   2.133
  119DPPC   C23 5923   0.125   6.383   2.227
  119DPPC   C24 5924   0.183   6.363   2.367
  119DPPC   C25 5925   0.335   6.376   2.367
  119DPPC   C26 5926   0.378   6.370   2.513
  119DPPC   C27 5927   0.527   6.364   2.547
  119DPPC   C28 5928   0.620   6.457   2.468
  119DPPC   C29 5929   0.752   6.460   2.544
  119DPPC   C30 5930   0.728   6.501   2.690
  119DPPC   C31 5931   0.854   6.480   2.774
  119DPPC   C32 5932   0.256   6.300   1.346
  119DPPC   O33 5933   0.283   6.360   1.473
  119DPPC   C34 5934   0.294   6.495   1.473
  119DPPC   O35 5935   0.284   6.546   1.362
  119DPPC   C36 5936   0.278   6.579   1.600
  119DPPC   C37 5937   0.301   6.505   1.732
  119DPPC   C38 5938   0.273   6.587   1.858
  119DPPC   C39 5939   0.361   6.712   1.867
  119DPPC   C40 5940   0.359   6.790   1.999
  119DPPC   C41 5941   0.409   6.680   2.093
  119DPPC   C42 5942   0.359   6.728   2.229
  119DPPC   C43 5943   0.439   6.854   2.264
  119DPPC   C44 5944   0.385   6.908   2.396
  119DPPC   C45 5945   0.433   7.047   2.437
  119DPPC   C46 5946   0.373   7.087   2.572
  119DPPC   C47 5947   0.243   7.165   2.555
  119DPPC   C48 5948   0.182   7.205   2.690
  119DPPC   C49 5949   0.282   7.276   2.781
  119DPPC   C50 5950   0.243   7.276   2.929
  120DPPC    C1 5951   4.137   6.472   2.104
  120DPPC    C2 5952   3.939   6.563   1.998
  120DPPC    C3 5953   3.910   6.399   2.162
  120DPPC    N4 5954   3.996   6.511   2.123
  120DPPC    C5 5955   3.995   6.614   2.228
  120DPPC    C6 5956   4.088   6.735   2.231
  120DPPC    O7 5957   4.072   6.821   2.344
  120DPPC    P8 5958   4.209   6.903   2.368
  120DPPC    O9 5959   4.191   7.006   2.473
  120DPPC   O10 5960   4.252   6.938   2.231
  120DPPC   O11 5961   4.297   6.784   2.431
  120DPPC   C12 5962   4.254   6.765   2.566
  120DPPC   C13 5963   4.173   6.637   2.582
  120DPPC   O14 5964   4.059   6.653   2.669
  120DPPC   C15 5965   3.937   6.624   2.616
  120DPPC   O16 5966   3.919   6.558   2.514
  120DPPC   C17 5967   3.812   6.635   2.704
  120DPPC   C18 5968   3.789   6.499   2.769
  120DPPC   C19 5969   3.654   6.480   2.840
  120DPPC   C20 5970   3.632   6.586   2.948
  120DPPC   C21 5971   3.487   6.586   2.998
  120DPPC   C22 5972   3.484   6.692   3.109
  120DPPC   C23 5973   3.344   6.689   3.172
  120DPPC   C24 5974   3.331   6.810   3.265
  120DPPC   C25 5975   3.206   6.787   3.350
  120DPPC   C26 5976   3.209   6.651   3.421
  120DPPC   C27 5977   3.070   6.611   3.470
  120DPPC   C28 5978   3.071   6.622   3.622
  120DPPC   C29 5979   2.949   6.564   3.695
  120DPPC   C30 5980   2.847   6.674   3.724
  120DPPC   C31 5981   2.726   6.629   3.807
  120DPPC   C32 5982   4.251   6.506   2.600
  120DPPC   O33 5983   4.368   6.515   2.682
  120DPPC   C34 5984   4.429   6.395   2.697
  120DPPC   O35 5985   4.389   6.297   2.633
  120DPPC   C36 5986   4.549   6.366   2.789
  120DPPC   C37 5987   4.510   6.355   2.936
  120DPPC   C38 5988   4.626   6.327   3.031
  120DPPC   C39 5989   4.718   6.450   3.024
  120DPPC   C40 5990   4.842   6.446   3.113
  120DPPC   C41 5991   4.903   6.586   3.129
  120DPPC   C42 5992   4.933   6.652   2.995
  120DPPC   C43 5993   4.967   6.800   3.011
  120DPPC   C44 5994   4.975   6.866   2.873
  120DPPC   C45 5995   5.012   7.014   2.877
  120DPPC   C46 5996   4.935   7.099   2.979
  120DPPC   C47 5997   5.017   7.225   3.008
  120DPPC   C48 5998   4.940   7.321   3.099
  120DPPC   C49 5999   5.037   7.432   3.138
  120DPPC   C50 6000   4.971   7.534   3.231
  121DPPC    C1 6001   7.243   3.182   2.238
  121DPPC    C2 6002   7.293   2.997   2.369
  121DPPC    C3 6003   7.135   2.972   2.183
  121DPPC    N4 6004   7.258   3.036   2.232
  121DPPC    C5 6005   7.367   2.988   2.146
  121DPPC    C6 6006   7.400   3.060   2.015
  121DPPC    O7 6007   7.528   3.011   1.974
  121DPPC    P8 6008   7.570   3.057   1.826
  121DPPC    O9 6009   7.457   3.108   1.746
  121DPPC   O10 6010   7.665   2.960   1.766
  121DPPC   O11 6011   7.666   3.180   1.870
  121DPPC   C12 6012   7.780   3.134   1.943
  121DPPC   C13 6013   7.819   3.214   2.068
  121DPPC   O14 6014   7.942   3.173   2.130
  121DPPC   C15 6015   8.043   3.264   2.132
  121DPPC   O16 6016   8.048   3.353   2.046
  121DPPC   C17 6017   8.163   3.241   2.223
  121DPPC   C18 6018   8.159   3.335   2.345
  121DPPC   C19 6019   8.054   3.285   2.444
  121DPPC   C20 6020   8.073   3.361   2.576
  121DPPC   C21 6021   8.025   3.284   2.700
  121DPPC   C22 6022   8.058   3.373   2.821
  121DPPC   C23 6023   7.979   3.333   2.946
  121DPPC   C24 6024   7.831   3.363   2.923
  121DPPC   C25 6025   7.749   3.314   3.042
  121DPPC   C26 6026   7.801   3.367   3.176
  121DPPC   C27 6027   7.754   3.509   3.206
  121DPPC   C28 6028   7.831   3.561   3.328
  121DPPC   C29 6029   7.973   3.580   3.275
  121DPPC   C30 6030   8.066   3.624   3.388
  121DPPC   C31 6031   8.071   3.524   3.504
  121DPPC   C32 6032   7.709   3.200   2.174
  121DPPC   O33 6033   7.706   3.312   2.262
  121DPPC   C34 6034   7.623   3.290   2.367
  121DPPC   O35 6035   7.516   3.229   2.354
  121DPPC   C36 6036   7.660   3.355   2.501
  121DPPC   C37 6037   7.674   3.505   2.479
  121DPPC   C38 6038   7.751   3.574   2.592
  121DPPC   C39 6039   7.781   3.723   2.576
  121DPPC   C40 6040   7.864   3.757   2.700
  121DPPC   C41 6041   7.909   3.903   2.688
  121DPPC   C42 6042   7.978   3.940   2.820
  121DPPC   C43 6043   7.882   3.925   2.939
  121DPPC   C44 6044   7.945   3.992   3.061
  121DPPC   C45 6045   7.850   4.006   3.181
  121DPPC   C46 6046   7.935   4.067   3.293
  121DPPC   C47 6047   7.861   4.084   3.426
  121DPPC   C48 6048   7.961   4.113   3.538
  121DPPC   C49 6049   7.894   4.122   3.675
  121DPPC   C50 6050   8.004   4.176   3.767
  122DPPC    C1 6051   6.909   6.523   1.627
  122DPPC    C2 6052   7.142   6.537   1.580
  122DPPC    C3 6053   6.988   6.683   1.483
  122DPPC    N4 6054   7.021   6.616   1.609
  122DPPC    C5 6055   7.025   6.702   1.729
  122DPPC    C6 6056   7.146   6.791   1.756
  122DPPC    O7 6057   7.159   6.905   1.671
  122DPPC    P8 6058   7.319   6.924   1.677
  122DPPC    O9 6059   7.340   7.050   1.602
  122DPPC   O10 6060   7.370   6.790   1.644
  122DPPC   O11 6061   7.338   6.969   1.831
  122DPPC   C12 6062   7.279   7.092   1.875
  122DPPC   C13 6063   7.330   7.133   2.014
  122DPPC   O14 6064   7.468   7.161   2.037
  122DPPC   C15 6065   7.520   7.281   2.000
  122DPPC   O16 6066   7.455   7.363   1.934
  122DPPC   C17 6067   7.647   7.322   2.074
  122DPPC   C18 6068   7.632   7.313   2.226
  122DPPC   C19 6069   7.768   7.362   2.277
  122DPPC   C20 6070   7.761   7.368   2.429
  122DPPC   C21 6071   7.903   7.368   2.488
  122DPPC   C22 6072   7.970   7.231   2.493
  122DPPC   C23 6073   8.107   7.245   2.560
  122DPPC   C24 6074   8.130   7.104   2.615
  122DPPC   C25 6075   8.248   7.091   2.711
  122DPPC   C26 6076   8.249   6.943   2.752
  122DPPC   C27 6077   8.344   6.928   2.871
  122DPPC   C28 6078   8.310   7.034   2.975
  122DPPC   C29 6079   8.383   7.011   3.108
  122DPPC   C30 6080   8.372   7.137   3.193
  122DPPC   C31 6081   8.418   7.118   3.338
  122DPPC   C32 6082   7.290   7.009   2.094
  122DPPC   O33 6083   7.147   7.008   2.101
  122DPPC   C34 6084   7.089   6.910   2.175
  122DPPC   O35 6085   7.143   6.800   2.177
  122DPPC   C36 6086   6.939   6.927   2.202
  122DPPC   C37 6087   6.911   6.901   2.350
  122DPPC   C38 6088   6.894   6.751   2.371
  122DPPC   C39 6089   6.864   6.730   2.520
  122DPPC   C40 6090   6.985   6.763   2.608
  122DPPC   C41 6091   6.946   6.738   2.753
  122DPPC   C42 6092   7.057   6.758   2.857
  122DPPC   C43 6093   7.111   6.900   2.867
  122DPPC   C44 6094   7.247   6.912   2.937
  122DPPC   C45 6095   7.232   6.850   3.077
  122DPPC   C46 6096   7.362   6.862   3.156
  122DPPC   C47 6097   7.388   6.742   3.248
  122DPPC   C48 6098   7.513   6.754   3.337
  122DPPC   C49 6099   7.633   6.704   3.257
  122DPPC   C50 6100   7.757   6.748   3.336
  123DPPC    C1 6101   8.133   8.059   1.865
  123DPPC    C2 6102   7.949   8.164   1.781
  123DPPC    C3 6103   8.064   8.055   1.635
  123DPPC    N4 6104   8.020   8.035   1.774
  123DPPC    C5 6105   7.940   7.914   1.797
  123DPPC    C6 6106   8.010   7.780   1.775
  123DPPC    O7 6107   7.920   7.671   1.754
  123DPPC    P8 6108   8.008   7.555   1.684
  123DPPC    O9 6109   8.070   7.642   1.581
  123DPPC   O10 6110   7.909   7.448   1.659
  123DPPC   O11 6111   8.097   7.527   1.816
  123DPPC   C12 6112   8.046   7.401   1.863
  123DPPC   C13 6113   8.128   7.361   1.986
  123DPPC   O14 6114   8.068   7.241   2.036
  123DPPC   C15 6115   8.131   7.125   2.003
  123DPPC   O16 6116   8.202   7.118   1.904
  123DPPC   C17 6117   8.060   6.997   2.049
  123DPPC   C18 6118   8.158   6.900   2.114
  123DPPC   C19 6119   8.088   6.777   2.173
  123DPPC   C20 6120   8.191   6.704   2.259
  123DPPC   C21 6121   8.184   6.739   2.408
  123DPPC   C22 6122   8.092   6.657   2.499
  123DPPC   C23 6123   8.106   6.506   2.478
  123DPPC   C24 6124   7.989   6.451   2.561
  123DPPC   C25 6125   7.968   6.300   2.550
  123DPPC   C26 6126   7.851   6.253   2.638
  123DPPC   C27 6127   7.807   6.110   2.607
  123DPPC   C28 6128   7.713   6.048   2.710
  123DPPC   C29 6129   7.799   6.045   2.836
  123DPPC   C30 6130   7.746   5.961   2.953
  123DPPC   C31 6131   7.823   5.979   3.084
  123DPPC   C32 6132   8.111   7.480   2.080
  123DPPC   O33 6133   8.234   7.524   2.139
  123DPPC   C34 6134   8.210   7.624   2.228
  123DPPC   O35 6135   8.118   7.625   2.309
  123DPPC   C36 6136   8.342   7.702   2.240
  123DPPC   C37 6137   8.380   7.734   2.384
  123DPPC   C38 6138   8.415   7.610   2.467
  123DPPC   C39 6139   8.425   7.635   2.617
  123DPPC   C40 6140   8.461   7.510   2.697
  123DPPC   C41 6141   8.435   7.528   2.847
  123DPPC   C42 6142   8.299   7.474   2.890
  123DPPC   C43 6143   8.300   7.514   3.037
  123DPPC   C44 6144   8.160   7.494   3.095
  123DPPC   C45 6145   8.161   7.526   3.245
  123DPPC   C46 6146   8.217   7.668   3.251
  123DPPC   C47 6147   8.236   7.688   3.401
  123DPPC   C48 6148   8.302   7.563   3.461
  123DPPC   C49 6149   8.351   7.588   3.604
  123DPPC   C50 6150   8.241   7.604   3.710
  124DPPC    C1 6151   6.370   3.338   2.141
  124DPPC    C2 6152   6.346   3.178   2.305
  124DPPC    C3 6153   6.167   3.216   2.146
  124DPPC    N4 6154   6.312   3.205   2.165
  124DPPC    C5 6155   6.361   3.104   2.070
  124DPPC    C6 6156   6.510   3.104   2.036
  124DPPC    O7 6157   6.605   3.108   2.143
  124DPPC    P8 6158   6.753   3.106   2.080
  124DPPC    O9 6159   6.740   3.172   1.948
  124DPPC   O10 6160   6.837   2.984   2.090
  124DPPC   O11 6161   6.813   3.203   2.193
  124DPPC   C12 6162   6.827   3.141   2.321
  124DPPC   C13 6163   6.863   3.238   2.433
  124DPPC   O14 6164   6.858   3.174   2.562
  124DPPC   C15 6165   6.964   3.095   2.593
  124DPPC   O16 6166   7.053   3.082   2.510
  124DPPC   C17 6167   6.978   3.029   2.731
  124DPPC   C18 6168   7.120   3.034   2.788
  124DPPC   C19 6169   7.121   2.999   2.937
  124DPPC   C20 6170   7.031   3.085   3.026
  124DPPC   C21 6171   7.041   3.040   3.172
  124DPPC   C22 6172   6.961   3.123   3.272
  124DPPC   C23 6173   6.959   3.072   3.416
  124DPPC   C24 6174   6.833   3.134   3.476
  124DPPC   C25 6175   6.712   3.110   3.386
  124DPPC   C26 6176   6.582   3.147   3.457
  124DPPC   C27 6177   6.574   3.299   3.457
  124DPPC   C28 6178   6.457   3.332   3.549
  124DPPC   C29 6179   6.457   3.465   3.626
  124DPPC   C30 6180   6.345   3.463   3.730
  124DPPC   C31 6181   6.390   3.422   3.871
  124DPPC   C32 6182   6.776   3.363   2.424
  124DPPC   O33 6183   6.633   3.367   2.434
  124DPPC   C34 6184   6.594   3.497   2.423
  124DPPC   O35 6185   6.643   3.564   2.333
  124DPPC   C36 6186   6.488   3.546   2.522
  124DPPC   C37 6187   6.479   3.461   2.649
  124DPPC   C38 6188   6.364   3.509   2.738
  124DPPC   C39 6189   6.346   3.414   2.856
  124DPPC   C40 6190   6.208   3.428   2.921
  124DPPC   C41 6191   6.196   3.375   3.064
  124DPPC   C42 6192   6.048   3.359   3.101
  124DPPC   C43 6193   6.021   3.335   3.250
  124DPPC   C44 6194   5.987   3.187   3.267
  124DPPC   C45 6195   5.970   3.169   3.418
  124DPPC   C46 6196   5.983   3.019   3.443
  124DPPC   C47 6197   5.951   2.989   3.589
  124DPPC   C48 6198   5.959   2.838   3.616
  124DPPC   C49 6199   5.866   2.795   3.729
  124DPPC   C50 6200   5.890   2.646   3.754
  125DPPC    C1 6201   2.427   0.014   1.534
  125DPPC    C2 6202   2.299   0.129   1.702
  125DPPC    C3 6203   2.200   0.041   1.514
  125DPPC    N4 6204   2.304   0.012   1.613
  125DPPC    C5 6205   2.287  -0.108   1.698
  125DPPC    C6 6206   2.291  -0.243   1.626
  125DPPC    O7 6207   2.166  -0.278   1.565
  125DPPC    P8 6208   2.187  -0.402   1.466
  125DPPC    O9 6209   2.318  -0.378   1.401
  125DPPC   O10 6210   2.061  -0.415   1.389
  125DPPC   O11 6211   2.189  -0.504   1.591
  125DPPC   C12 6212   2.053  -0.545   1.610
  125DPPC   C13 6213   2.026  -0.607   1.747
  125DPPC   O14 6214   1.949  -0.526   1.836
  125DPPC   C15 6215   1.817  -0.517   1.803
  125DPPC   O16 6216   1.753  -0.600   1.738
  125DPPC   C17 6217   1.751  -0.410   1.890
  125DPPC   C18 6218   1.686  -0.479   2.010
  125DPPC   C19 6219   1.607  -0.373   2.086
  125DPPC   C20 6220   1.686  -0.285   2.183
  125DPPC   C21 6221   1.596  -0.175   2.240
  125DPPC   C22 6222   1.673  -0.106   2.353
  125DPPC   C23 6223   1.570  -0.021   2.429
  125DPPC   C24 6224   1.452  -0.115   2.451
  125DPPC   C25 6225   1.338  -0.049   2.530
  125DPPC   C26 6226   1.379   0.005   2.667
  125DPPC   C27 6227   1.271   0.092   2.730
  125DPPC   C28 6228   1.160  -0.003   2.776
  125DPPC   C29 6229   1.033   0.078   2.800
  125DPPC   C30 6230   0.916  -0.003   2.857
  125DPPC   C31 6231   0.796   0.091   2.871
  125DPPC   C32 6232   2.163  -0.637   1.809
  125DPPC   O33 6233   2.167  -0.711   1.931
  125DPPC   C34 6234   2.291  -0.732   1.985
  125DPPC   O35 6235   2.389  -0.737   1.911
  125DPPC   C36 6236   2.287  -0.785   2.128
  125DPPC   C37 6237   2.198  -0.699   2.218
  125DPPC   C38 6238   2.267  -0.569   2.260
  125DPPC   C39 6239   2.407  -0.604   2.312
  125DPPC   C40 6240   2.485  -0.474   2.336
  125DPPC   C41 6241   2.413  -0.371   2.422
  125DPPC   C42 6242   2.512  -0.269   2.479
  125DPPC   C43 6243   2.422  -0.174   2.559
  125DPPC   C44 6244   2.508  -0.058   2.609
  125DPPC   C45 6245   2.575   0.021   2.497
  125DPPC   C46 6246   2.632   0.151   2.553
  125DPPC   C47 6247   2.512   0.211   2.627
  125DPPC   C48 6248   2.544   0.348   2.686
  125DPPC   C49 6249   2.432   0.382   2.784
  125DPPC   C50 6250   2.484   0.492   2.877
  126DPPC    C1 6251   6.584   3.752   1.778
  126DPPC    C2 6252   6.550   3.911   1.618
  126DPPC    C3 6253   6.607   3.696   1.535
  126DPPC    N4 6254   6.533   3.766   1.641
  126DPPC    C5 6255   6.390   3.738   1.625
  126DPPC    C6 6256   6.334   3.606   1.680
  126DPPC    O7 6257   6.196   3.576   1.662
  126DPPC    P8 6258   6.127   3.442   1.718
  126DPPC    O9 6259   6.234   3.370   1.791
  126DPPC   O10 6260   6.060   3.400   1.593
  126DPPC   O11 6261   6.031   3.515   1.824
  126DPPC   C12 6262   6.083   3.565   1.948
  126DPPC   C13 6263   6.135   3.708   1.940
  126DPPC   O14 6264   6.192   3.754   2.064
  126DPPC   C15 6265   6.320   3.722   2.096
  126DPPC   O16 6266   6.387   3.639   2.034
  126DPPC   C17 6267   6.369   3.799   2.218
  126DPPC   C18 6268   6.248   3.847   2.299
  126DPPC   C19 6269   6.289   3.873   2.444
  126DPPC   C20 6270   6.185   3.944   2.531
  126DPPC   C21 6271   6.224   3.956   2.678
  126DPPC   C22 6272   6.118   4.032   2.758
  126DPPC   C23 6273   6.113   4.180   2.720
  126DPPC   C24 6274   6.022   4.248   2.822
  126DPPC   C25 6275   6.085   4.242   2.962
  126DPPC   C26 6276   6.014   4.335   3.061
  126DPPC   C27 6277   6.088   4.353   3.193
  126DPPC   C28 6278   6.221   4.430   3.192
  126DPPC   C29 6279   6.294   4.404   3.324
  126DPPC   C30 6280   6.307   4.253   3.344
  126DPPC   C31 6281   6.347   4.215   3.487
  126DPPC   C32 6282   6.015   3.787   1.887
  126DPPC   O33 6283   5.905   3.786   1.977
  126DPPC   C34 6284   5.806   3.872   1.940
  126DPPC   O35 6285   5.794   3.911   1.824
  126DPPC   C36 6286   5.695   3.876   2.045
  126DPPC   C37 6287   5.729   3.956   2.171
  126DPPC   C38 6288   5.625   3.965   2.282
  126DPPC   C39 6289   5.695   3.997   2.414
  126DPPC   C40 6290   5.590   4.049   2.512
  126DPPC   C41 6291   5.665   4.072   2.643
  126DPPC   C42 6292   5.576   4.120   2.757
  126DPPC   C43 6293   5.659   4.128   2.886
  126DPPC   C44 6294   5.564   4.182   2.992
  126DPPC   C45 6295   5.624   4.155   3.130
  126DPPC   C46 6296   5.524   4.187   3.242
  126DPPC   C47 6297   5.587   4.169   3.380
  126DPPC   C48 6298   5.481   4.166   3.490
  126DPPC   C49 6299   5.547   4.152   3.627
  126DPPC   C50 6300   5.446   4.123   3.738
  127DPPC    C1 6301   2.239   6.172   1.324
  127DPPC    C2 6302   2.416   6.255   1.456
  127DPPC    C3 6303   2.417   6.241   1.208
  127DPPC    N4 6304   2.343   6.276   1.330
  127DPPC    C5 6305   2.261   6.397   1.324
  127DPPC    C6 6306   2.338   6.527   1.350
  127DPPC    O7 6307   2.241   6.624   1.388
  127DPPC    P8 6308   2.312   6.761   1.435
  127DPPC    O9 6309   2.292   6.851   1.319
  127DPPC   O10 6310   2.448   6.737   1.489
  127DPPC   O11 6311   2.214   6.819   1.549
  127DPPC   C12 6312   2.228   6.747   1.672
  127DPPC   C13 6313   2.181   6.817   1.800
  127DPPC   O14 6314   2.205   6.744   1.921
  127DPPC   C15 6315   2.326   6.727   1.980
  127DPPC   O16 6316   2.424   6.760   1.914
  127DPPC   C17 6317   2.338   6.700   2.131
  127DPPC   C18 6318   2.477   6.645   2.165
  127DPPC   C19 6319   2.490   6.619   2.315
  127DPPC   C20 6320   2.632   6.571   2.346
  127DPPC   C21 6321   2.641   6.555   2.498
  127DPPC   C22 6322   2.636   6.689   2.570
  127DPPC   C23 6323   2.643   6.670   2.722
  127DPPC   C24 6324   2.769   6.606   2.780
  127DPPC   C25 6325   2.763   6.618   2.932
  127DPPC   C26 6326   2.895   6.553   2.974
  127DPPC   C27 6327   2.893   6.527   3.124
  127DPPC   C28 6328   2.787   6.422   3.159
  127DPPC   C29 6329   2.811   6.372   3.301
  127DPPC   C30 6330   2.698   6.271   3.323
  127DPPC   C31 6331   2.706   6.212   3.464
  127DPPC   C32 6332   2.033   6.840   1.768
  127DPPC   O33 6333   1.953   6.939   1.832
  127DPPC   C34 6334   1.862   6.998   1.750
  127DPPC   O35 6335   1.864   6.972   1.629
  127DPPC   C36 6336   1.765   7.098   1.812
  127DPPC   C37 6337   1.718   7.040   1.946
  127DPPC   C38 6338   1.586   7.109   1.983
  127DPPC   C39 6339   1.539   7.074   2.124
  127DPPC   C40 6340   1.408   7.144   2.161
  127DPPC   C41 6341   1.332   7.084   2.279
  127DPPC   C42 6342   1.423   7.101   2.401
  127DPPC   C43 6343   1.359   7.041   2.527
  127DPPC   C44 6344   1.448   7.090   2.642
  127DPPC   C45 6345   1.596   7.055   2.629
  127DPPC   C46 6346   1.655   7.105   2.761
  127DPPC   C47 6347   1.798   7.050   2.763
  127DPPC   C48 6348   1.846   7.057   2.908
  127DPPC   C49 6349   1.839   7.202   2.956
  127DPPC   C50 6350   1.915   7.220   3.087
  128DPPC    C1 6351   2.061   3.988   1.484
  128DPPC    C2 6352   1.856   3.871   1.468
  128DPPC    C3 6353   2.046   3.785   1.353
  128DPPC    N4 6354   2.002   3.854   1.475
  128DPPC    C5 6355   2.035   3.778   1.596
  128DPPC    C6 6356   2.178   3.726   1.611
  128DPPC    O7 6357   2.237   3.766   1.735
  128DPPC    P8 6358   2.395   3.791   1.714
  128DPPC    O9 6359   2.405   3.939   1.721
  128DPPC   O10 6360   2.456   3.709   1.606
  128DPPC   O11 6361   2.445   3.718   1.848
  128DPPC   C12 6362   2.479   3.581   1.829
  128DPPC   C13 6363   2.487   3.498   1.957
  128DPPC   O14 6364   2.393   3.390   1.963
  128DPPC   C15 6365   2.448   3.276   2.011
  128DPPC   O16 6366   2.559   3.245   1.966
  128DPPC   C17 6367   2.353   3.168   2.064
  128DPPC   C18 6368   2.402   3.125   2.202
  128DPPC   C19 6369   2.395   3.237   2.306
  128DPPC   C20 6370   2.389   3.191   2.452
  128DPPC   C21 6371   2.349   3.301   2.551
  128DPPC   C22 6372   2.377   3.259   2.696
  128DPPC   C23 6373   2.363   3.381   2.787
  128DPPC   C24 6374   2.361   3.339   2.934
  128DPPC   C25 6375   2.322   3.464   3.014
  128DPPC   C26 6376   2.437   3.559   3.048
  128DPPC   C27 6377   2.386   3.630   3.173
  128DPPC   C28 6378   2.506   3.693   3.244
  128DPPC   C29 6379   2.606   3.583   3.277
  128DPPC   C30 6380   2.710   3.641   3.373
  128DPPC   C31 6381   2.646   3.686   3.505
  128DPPC   C32 6382   2.472   3.590   2.078
  128DPPC   O33 6383   2.540   3.541   2.194
  128DPPC   C34 6384   2.576   3.643   2.277
  128DPPC   O35 6385   2.562   3.763   2.253
  128DPPC   C36 6386   2.612   3.598   2.419
  128DPPC   C37 6387   2.668   3.708   2.509
  128DPPC   C38 6388   2.685   3.643   2.646
  128DPPC   C39 6389   2.730   3.748   2.747
  128DPPC   C40 6390   2.805   3.678   2.860
  128DPPC   C41 6391   2.871   3.771   2.962
  128DPPC   C42 6392   2.976   3.691   3.039
  128DPPC   C43 6393   3.051   3.795   3.123
  128DPPC   C44 6394   3.074   3.718   3.253
  128DPPC   C45 6395   3.148   3.807   3.354
  128DPPC   C46 6396   3.277   3.861   3.293
  128DPPC   C47 6397   3.357   3.929   3.405
  128DPPC   C48 6398   3.483   3.979   3.334
  128DPPC   C49 6399   3.576   4.049   3.433
  128DPPC   C50 6400   3.697   4.107   3.359
  129DPPC    C1 6401   2.789   2.158   5.674
  129DPPC    C2 6402   2.701   2.132   5.901
  129DPPC    C3 6403   2.740   2.343   5.801
  129DPPC    N4 6404   2.694   2.206   5.774
  129DPPC    C5 6405   2.553   2.203   5.731
  129DPPC    C6 6406   2.496   2.082   5.657
  129DPPC    O7 6407   2.393   2.113   5.563
  129DPPC    P8 6408   2.301   1.984   5.535
  129DPPC    O9 6409   2.207   2.053   5.444
  129DPPC   O10 6410   2.254   1.942   5.668
  129DPPC   O11 6411   2.403   1.878   5.470
  129DPPC   C12 6412   2.439   1.938   5.345
  129DPPC   C13 6413   2.586   1.907   5.317
  129DPPC   O14 6414   2.639   1.989   5.212
  129DPPC   C15 6415   2.695   2.109   5.242
  129DPPC   O16 6416   2.652   2.164   5.343
  129DPPC   C17 6417   2.766   2.195   5.137
  129DPPC   C18 6418   2.693   2.325   5.106
  129DPPC   C19 6419   2.721   2.378   4.965
  129DPPC   C20 6420   2.677   2.265   4.871
  129DPPC   C21 6421   2.705   2.305   4.726
  129DPPC   C22 6422   2.635   2.202   4.637
  129DPPC   C23 6423   2.591   2.270   4.507
  129DPPC   C24 6424   2.552   2.166   4.403
  129DPPC   C25 6425   2.526   2.225   4.264
  129DPPC   C26 6426   2.535   2.118   4.155
  129DPPC   C27 6427   2.538   2.183   4.017
  129DPPC   C28 6428   2.560   2.070   3.916
  129DPPC   C29 6429   2.579   2.130   3.776
  129DPPC   C30 6430   2.558   2.021   3.672
  129DPPC   C31 6431   2.600   2.080   3.537
  129DPPC   C32 6432   2.598   1.757   5.292
  129DPPC   O33 6433   2.487   1.711   5.215
  129DPPC   C34 6434   2.496   1.577   5.190
  129DPPC   O35 6435   2.593   1.518   5.237
  129DPPC   C36 6436   2.390   1.509   5.105
  129DPPC   C37 6437   2.433   1.371   5.054
  129DPPC   C38 6438   2.556   1.394   4.965
  129DPPC   C39 6439   2.595   1.254   4.916
  129DPPC   C40 6440   2.496   1.193   4.817
  129DPPC   C41 6441   2.578   1.083   4.749
  129DPPC   C42 6442   2.508   1.030   4.623
  129DPPC   C43 6443   2.582   0.903   4.580
  129DPPC   C44 6444   2.497   0.825   4.480
  129DPPC   C45 6445   2.585   0.723   4.407
  129DPPC   C46 6446   2.509   0.657   4.291
  129DPPC   C47 6447   2.603   0.561   4.218
  129DPPC   C48 6448   2.544   0.534   4.079
  129DPPC   C49 6449   2.639   0.451   3.993
  129DPPC   C50 6450   2.582   0.385   3.867
  130DPPC    C1 6451   0.679   7.666   1.292
  130DPPC    C2 6452   0.856   7.829   1.290
  130DPPC    C3 6453   0.627   7.893   1.309
  130DPPC    N4 6454   0.727   7.793   1.349
  130DPPC    C5 6455   0.711   7.789   1.495
  130DPPC    C6 6456   0.785   7.680   1.572
  130DPPC    O7 6457   0.695   7.588   1.634
  130DPPC    P8 6458   0.766   7.524   1.763
  130DPPC    O9 6459   0.897   7.589   1.780
  130DPPC   O10 6460   0.747   7.377   1.762
  130DPPC   O11 6461   0.660   7.588   1.866
  130DPPC   C12 6462   0.727   7.693   1.938
  130DPPC   C13 6463   0.641   7.757   2.047
  130DPPC   O14 6464   0.730   7.794   2.153
  130DPPC   C15 6465   0.819   7.897   2.150
  130DPPC   O16 6466   0.805   7.979   2.059
  130DPPC   C17 6467   0.905   7.911   2.276
  130DPPC   C18 6468   0.852   8.010   2.380
  130DPPC   C19 6469   0.864   7.944   2.517
  130DPPC   C20 6470   1.005   7.887   2.537
  130DPPC   C21 6471   1.095   8.009   2.562
  130DPPC   C22 6472   1.243   7.968   2.562
  130DPPC   C23 6473   1.309   8.073   2.651
  130DPPC   C24 6474   1.323   8.030   2.797
  130DPPC   C25 6475   1.440   7.932   2.811
  130DPPC   C26 6476   1.453   7.885   2.956
  130DPPC   C27 6477   1.496   7.989   3.060
  130DPPC   C28 6478   1.504   7.951   3.208
  130DPPC   C29 6479   1.610   7.840   3.207
  130DPPC   C30 6480   1.623   7.780   3.347
  130DPPC   C31 6481   1.492   7.773   3.425
  130DPPC   C32 6482   0.539   7.650   2.087
  130DPPC   O33 6483   0.423   7.705   2.150
  130DPPC   C34 6484   0.350   7.605   2.207
  130DPPC   O35 6485   0.370   7.486   2.184
  130DPPC   C36 6486   0.220   7.651   2.273
  130DPPC   C37 6487   0.166   7.546   2.371
  130DPPC   C38 6488   0.021   7.562   2.416
  130DPPC   C39 6489  -0.012   7.699   2.476
  130DPPC   C40 6490  -0.143   7.716   2.553
  130DPPC   C41 6491  -0.154   7.866   2.576
  130DPPC   C42 6492  -0.299   7.900   2.612
  130DPPC   C43 6493  -0.323   8.047   2.647
  130DPPC   C44 6494  -0.439   8.078   2.741
  130DPPC   C45 6495  -0.460   8.228   2.763
  130DPPC   C46 6496  -0.573   8.269   2.857
  130DPPC   C47 6497  -0.534   8.218   2.996
  130DPPC   C48 6498  -0.657   8.218   3.088
  130DPPC   C49 6499  -0.710   8.362   3.096
  130DPPC   C50 6500  -0.856   8.363   3.143
  131DPPC    C1 6501   1.422   3.985   5.602
  131DPPC    C2 6502   1.447   3.810   5.432
  131DPPC    C3 6503   1.308   3.999   5.401
  131DPPC    N4 6504   1.436   3.954   5.459
  131DPPC    C5 6505   1.536   4.034   5.387
  131DPPC    C6 6506   1.549   4.184   5.416
  131DPPC    O7 6507   1.470   4.264   5.327
  131DPPC    P8 6508   1.489   4.416   5.376
  131DPPC    O9 6509   1.548   4.422   5.512
  131DPPC   O10 6510   1.367   4.493   5.344
  131DPPC   O11 6511   1.602   4.453   5.268
  131DPPC   C12 6512   1.543   4.439   5.139
  131DPPC   C13 6513   1.647   4.435   5.027
  131DPPC   O14 6514   1.582   4.450   4.901
  131DPPC   C15 6515   1.639   4.547   4.823
  131DPPC   O16 6516   1.738   4.611   4.857
  131DPPC   C17 6517   1.591   4.539   4.678
  131DPPC   C18 6518   1.695   4.454   4.604
  131DPPC   C19 6519   1.639   4.423   4.465
  131DPPC   C20 6520   1.757   4.408   4.369
  131DPPC   C21 6521   1.717   4.361   4.229
  131DPPC   C22 6522   1.840   4.384   4.141
  131DPPC   C23 6523   1.818   4.328   4.000
  131DPPC   C24 6524   1.934   4.358   3.905
  131DPPC   C25 6525   2.070   4.311   3.956
  131DPPC   C26 6526   2.177   4.335   3.848
  131DPPC   C27 6527   2.317   4.302   3.901
  131DPPC   C28 6528   2.420   4.306   3.788
  131DPPC   C29 6529   2.563   4.311   3.843
  131DPPC   C30 6530   2.635   4.440   3.803
  131DPPC   C31 6531   2.783   4.441   3.841
  131DPPC   C32 6532   1.729   4.308   5.049
  131DPPC   O33 6533   1.803   4.247   4.943
  131DPPC   C34 6534   1.868   4.128   4.941
  131DPPC   O35 6535   1.837   4.051   5.032
  131DPPC   C36 6536   1.950   4.074   4.824
  131DPPC   C37 6537   1.866   4.080   4.696
  131DPPC   C38 6538   1.939   4.017   4.578
  131DPPC   C39 6539   1.846   4.025   4.456
  131DPPC   C40 6540   1.703   3.970   4.459
  131DPPC   C41 6541   1.662   3.972   4.311
  131DPPC   C42 6542   1.509   3.965   4.308
  131DPPC   C43 6543   1.465   3.959   4.161
  131DPPC   C44 6544   1.521   3.837   4.088
  131DPPC   C45 6545   1.455   3.824   3.951
  131DPPC   C46 6546   1.507   3.920   3.843
  131DPPC   C47 6547   1.506   3.856   3.704
  131DPPC   C48 6548   1.528   3.958   3.592
  131DPPC   C49 6549   1.527   3.892   3.454
  131DPPC   C50 6550   1.631   3.785   3.422
  132DPPC    C1 6551   9.232   6.380   1.176
  132DPPC    C2 6552   9.433   6.490   1.279
  132DPPC    C3 6553   9.290   6.603   1.137
  132DPPC    N4 6554   9.291   6.498   1.240
  132DPPC    C5 6555   9.210   6.534   1.358
  132DPPC    C6 6556   9.058   6.546   1.356
  132DPPC    O7 6557   9.009   6.578   1.487
  132DPPC    P8 6558   8.852   6.552   1.507
  132DPPC    O9 6559   8.833   6.408   1.477
  132DPPC   O10 6560   8.796   6.657   1.420
  132DPPC   O11 6561   8.841   6.568   1.667
  132DPPC   C12 6562   8.954   6.520   1.739
  132DPPC   C13 6563   8.947   6.549   1.889
  132DPPC   O14 6564   9.063   6.506   1.963
  132DPPC   C15 6565   9.176   6.581   1.962
  132DPPC   O16 6566   9.199   6.652   1.864
  132DPPC   C17 6567   9.277   6.569   2.076
  132DPPC   C18 6568   9.249   6.652   2.202
  132DPPC   C19 6569   9.358   6.638   2.309
  132DPPC   C20 6570   9.301   6.692   2.440
  132DPPC   C21 6571   9.370   6.659   2.573
  132DPPC   C22 6572   9.518   6.696   2.579
  132DPPC   C23 6573   9.542   6.728   2.727
  132DPPC   C24 6574   9.679   6.675   2.769
  132DPPC   C25 6575   9.716   6.714   2.913
  132DPPC   C26 6576   9.866   6.684   2.910
  132DPPC   C27 6577   9.907   6.689   3.058
  132DPPC   C28 6578  10.059   6.686   3.078
  132DPPC   C29 6579  10.081   6.638   3.222
  132DPPC   C30 6580  10.070   6.485   3.220
  132DPPC   C31 6581  10.086   6.426   3.360
  132DPPC   C32 6582   8.817   6.486   1.941
  132DPPC   O33 6583   8.798   6.483   2.082
  132DPPC   C34 6584   8.682   6.432   2.134
  132DPPC   O35 6585   8.591   6.406   2.055
  132DPPC   C36 6586   8.670   6.428   2.286
  132DPPC   C37 6587   8.595   6.545   2.351
  132DPPC   C38 6588   8.538   6.507   2.488
  132DPPC   C39 6589   8.494   6.629   2.568
  132DPPC   C40 6590   8.493   6.600   2.718
  132DPPC   C41 6591   8.395   6.486   2.750
  132DPPC   C42 6592   8.404   6.452   2.899
  132DPPC   C43 6593   8.382   6.581   2.979
  132DPPC   C44 6594   8.352   6.537   3.122
  132DPPC   C45 6595   8.294   6.656   3.198
  132DPPC   C46 6596   8.282   6.617   3.346
  132DPPC   C47 6597   8.210   6.734   3.414
  132DPPC   C48 6598   8.202   6.726   3.566
  132DPPC   C49 6599   8.102   6.617   3.604
  132DPPC   C50 6600   8.113   6.594   3.755
  133DPPC    C1 6601   7.295   0.271   5.494
  133DPPC    C2 6602   7.273   0.473   5.585
  133DPPC    C3 6603   7.395   0.286   5.705
  133DPPC    N4 6604   7.370   0.363   5.582
  133DPPC    C5 6605   7.499   0.398   5.520
  133DPPC    C6 6606   7.600   0.498   5.575
  133DPPC    O7 6607   7.720   0.501   5.497
  133DPPC    P8 6608   7.831   0.601   5.556
  133DPPC    O9 6609   7.956   0.602   5.478
  133DPPC   O10 6610   7.813   0.593   5.703
  133DPPC   O11 6611   7.755   0.735   5.508
  133DPPC   C12 6612   7.780   0.757   5.369
  133DPPC   C13 6613   7.691   0.859   5.298
  133DPPC   O14 6614   7.745   0.992   5.284
  133DPPC   C15 6615   7.835   1.008   5.184
  133DPPC   O16 6616   7.870   0.904   5.127
  133DPPC   C17 6617   7.919   1.135   5.173
  133DPPC   C18 6618   7.856   1.259   5.109
  133DPPC   C19 6619   7.864   1.256   4.956
  133DPPC   C20 6620   7.812   1.389   4.901
  133DPPC   C21 6621   7.887   1.512   4.953
  133DPPC   C22 6622   7.806   1.638   4.920
  133DPPC   C23 6623   7.895   1.762   4.934
  133DPPC   C24 6624   7.797   1.881   4.939
  133DPPC   C25 6625   7.719   1.886   4.808
  133DPPC   C26 6626   7.604   1.986   4.801
  133DPPC   C27 6627   7.531   1.970   4.667
  133DPPC   C28 6628   7.420   2.076   4.669
  133DPPC   C29 6629   7.335   2.058   4.543
  133DPPC   C30 6630   7.203   2.135   4.546
  133DPPC   C31 6631   7.115   2.102   4.425
  133DPPC   C32 6632   7.566   0.869   5.386
  133DPPC   O33 6633   7.438   0.862   5.324
  133DPPC   C34 6634   7.391   0.737   5.297
  133DPPC   O35 6635   7.433   0.632   5.347
  133DPPC   C36 6636   7.253   0.735   5.231
  133DPPC   C37 6637   7.270   0.716   5.080
  133DPPC   C38 6638   7.131   0.746   5.024
  133DPPC   C39 6639   7.150   0.768   4.874
  133DPPC   C40 6640   7.206   0.643   4.805
  133DPPC   C41 6641   7.199   0.665   4.654
  133DPPC   C42 6642   7.210   0.533   4.577
  133DPPC   C43 6643   7.186   0.563   4.430
  133DPPC   C44 6644   7.284   0.654   4.355
  133DPPC   C45 6645   7.262   0.650   4.204
  133DPPC   C46 6646   7.275   0.507   4.153
  133DPPC   C47 6647   7.248   0.501   4.002
  133DPPC   C48 6648   7.269   0.361   3.943
  133DPPC   C49 6649   7.263   0.362   3.791
  133DPPC   C50 6650   7.117   0.377   3.745
  134DPPC    C1 6651   0.269   7.732   5.335
  134DPPC    C2 6652   0.209   7.780   5.542
  134DPPC    C3 6653   0.445   7.764   5.492
  134DPPC    N4 6654   0.315   7.816   5.447
  134DPPC    C5 6655   0.315   7.961   5.427
  134DPPC    C6 6656   0.400   8.024   5.317
  134DPPC    O7 6657   0.372   7.991   5.181
  134DPPC    P8 6658   0.478   8.078   5.097
  134DPPC    O9 6659   0.600   7.995   5.110
  134DPPC   O10 6660   0.468   8.213   5.157
  134DPPC   O11 6661   0.427   8.070   4.945
  134DPPC   C12 6662   0.444   8.192   4.871
  134DPPC   C13 6663   0.477   8.172   4.723
  134DPPC   O14 6664   0.476   8.294   4.648
  134DPPC   C15 6665   0.572   8.390   4.650
  134DPPC   O16 6666   0.680   8.358   4.699
  134DPPC   C17 6667   0.555   8.520   4.573
  134DPPC   C18 6668   0.464   8.507   4.450
  134DPPC   C19 6669   0.491   8.623   4.354
  134DPPC   C20 6670   0.419   8.611   4.220
  134DPPC   C21 6671   0.492   8.689   4.111
  134DPPC   C22 6672   0.397   8.796   4.057
  134DPPC   C23 6673   0.451   8.891   3.950
  134DPPC   C24 6674   0.436   9.037   3.993
  134DPPC   C25 6675   0.504   9.129   3.892
  134DPPC   C26 6676   0.485   9.277   3.925
  134DPPC   C27 6677   0.555   9.360   3.817
  134DPPC   C28 6678   0.507   9.505   3.816
  134DPPC   C29 6679   0.615   9.591   3.751
  134DPPC   C30 6680   0.620   9.542   3.607
  134DPPC   C31 6681   0.723   9.630   3.535
  134DPPC   C32 6682   0.368   8.075   4.676
  134DPPC   O33 6683   0.236   8.122   4.702
  134DPPC   C34 6684   0.134   8.031   4.700
  134DPPC   O35 6685   0.155   7.915   4.664
  134DPPC   C36 6686   0.001   8.089   4.746
  134DPPC   C37 6687  -0.082   8.133   4.625
  134DPPC   C38 6688  -0.135   8.023   4.533
  134DPPC   C39 6689  -0.208   8.082   4.412
  134DPPC   C40 6690  -0.259   7.987   4.303
  134DPPC   C41 6691  -0.300   8.053   4.172
  134DPPC   C42 6692  -0.389   8.174   4.202
  134DPPC   C43 6693  -0.445   8.214   4.065
  134DPPC   C44 6694  -0.505   8.089   4.002
  134DPPC   C45 6695  -0.616   8.149   3.915
  134DPPC   C46 6696  -0.694   8.040   3.840
  134DPPC   C47 6697  -0.817   8.093   3.765
  134DPPC   C48 6698  -0.906   7.972   3.735
  134DPPC   C49 6699  -1.023   8.033   3.658
  134DPPC   C50 6700  -0.964   8.112   3.542
  135DPPC    C1 6701   7.881   7.746   5.620
  135DPPC    C2 6702   7.942   7.922   5.754
  135DPPC    C3 6703   8.075   7.897   5.560
  135DPPC    N4 6704   7.939   7.881   5.613
  135DPPC    C5 6705   7.839   7.963   5.541
  135DPPC    C6 6706   7.789   7.917   5.404
  135DPPC    O7 6707   7.665   7.960   5.347
  135DPPC    P8 6708   7.659   7.916   5.193
  135DPPC    O9 6709   7.528   7.959   5.138
  135DPPC   O10 6710   7.714   7.779   5.186
  135DPPC   O11 6711   7.771   8.024   5.151
  135DPPC   C12 6712   7.722   8.142   5.086
  135DPPC   C13 6713   7.829   8.250   5.074
  135DPPC   O14 6714   7.778   8.384   5.061
  135DPPC   C15 6715   7.865   8.489   5.058
  135DPPC   O16 6716   7.970   8.478   5.120
  135DPPC   C17 6717   7.803   8.629   5.049
  135DPPC   C18 6718   7.893   8.729   4.976
  135DPPC   C19 6719   7.935   8.675   4.840
  135DPPC   C20 6720   7.820   8.635   4.748
  135DPPC   C21 6721   7.845   8.506   4.670
  135DPPC   C22 6722   7.703   8.463   4.630
  135DPPC   C23 6723   7.633   8.564   4.540
  135DPPC   C24 6724   7.703   8.567   4.403
  135DPPC   C25 6725   7.631   8.640   4.289
  135DPPC   C26 6726   7.714   8.640   4.160
  135DPPC   C27 6727   7.646   8.730   4.057
  135DPPC   C28 6728   7.753   8.778   3.959
  135DPPC   C29 6729   7.669   8.872   3.872
  135DPPC   C30 6730   7.742   8.927   3.749
  135DPPC   C31 6731   7.706   8.845   3.625
  135DPPC   C32 6732   7.940   8.200   4.980
  135DPPC   O33 6733   7.887   8.142   4.861
  135DPPC   C34 6734   7.984   8.100   4.776
  135DPPC   O35 6735   8.101   8.132   4.799
  135DPPC   C36 6736   7.937   8.073   4.633
  135DPPC   C37 6737   7.808   7.992   4.651
  135DPPC   C38 6738   7.725   7.993   4.523
  135DPPC   C39 6739   7.602   7.903   4.515
  135DPPC   C40 6740   7.527   7.892   4.381
  135DPPC   C41 6741   7.512   8.037   4.334
  135DPPC   C42 6742   7.439   8.027   4.199
  135DPPC   C43 6743   7.531   7.945   4.108
  135DPPC   C44 6744   7.481   7.958   3.964
  135DPPC   C45 6745   7.589   7.913   3.864
  135DPPC   C46 6746   7.555   7.899   3.716
  135DPPC   C47 6747   7.463   7.780   3.686
  135DPPC   C48 6748   7.431   7.779   3.536
  135DPPC   C49 6749   7.340   7.667   3.485
  135DPPC   C50 6750   7.323   7.683   3.334
  136DPPC    C1 6751   7.104   3.180   6.032
  136DPPC    C2 6752   7.315   3.179   5.948
  136DPPC    C3 6753   7.197   3.365   5.919
  136DPPC    N4 6754   7.224   3.265   6.023
  136DPPC    C5 6755   7.280   3.317   6.149
  136DPPC    C6 6756   7.426   3.361   6.145
  136DPPC    O7 6757   7.454   3.480   6.071
  136DPPC    P8 6758   7.607   3.478   6.021
  136DPPC    O9 6759   7.671   3.378   6.110
  136DPPC   O10 6760   7.644   3.621   6.017
  136DPPC   O11 6761   7.574   3.424   5.873
  136DPPC   C12 6762   7.554   3.545   5.799
  136DPPC   C13 6763   7.629   3.538   5.665
  136DPPC   O14 6764   7.593   3.650   5.582
  136DPPC   C15 6765   7.658   3.769   5.595
  136DPPC   O16 6766   7.756   3.781   5.669
  136DPPC   C17 6767   7.597   3.891   5.527
  136DPPC   C18 6768   7.657   3.938   5.394
  136DPPC   C19 6769   7.590   4.057   5.325
  136DPPC   C20 6770   7.662   4.082   5.193
  136DPPC   C21 6771   7.679   3.967   5.094
  136DPPC   C22 6772   7.759   4.016   4.973
  136DPPC   C23 6773   7.689   4.138   4.912
  136DPPC   C24 6774   7.796   4.222   4.843
  136DPPC   C25 6775   7.852   4.176   4.708
  136DPPC   C26 6776   7.970   4.259   4.659
  136DPPC   C27 6777   8.043   4.182   4.549
  136DPPC   C28 6778   8.153   4.261   4.478
  136DPPC   C29 6779   8.101   4.396   4.428
  136DPPC   C30 6780   8.164   4.430   4.292
  136DPPC   C31 6781   8.126   4.569   4.243
  136DPPC   C32 6782   7.562   3.411   5.613
  136DPPC   O33 6783   7.641   3.325   5.530
  136DPPC   C34 6784   7.594   3.212   5.470
  136DPPC   O35 6785   7.477   3.179   5.485
  136DPPC   C36 6786   7.674   3.161   5.350
  136DPPC   C37 6787   7.639   3.259   5.238
  136DPPC   C38 6788   7.587   3.192   5.111
  136DPPC   C39 6789   7.519   3.287   5.012
  136DPPC   C40 6790   7.467   3.217   4.886
  136DPPC   C41 6791   7.384   3.317   4.806
  136DPPC   C42 6792   7.320   3.253   4.682
  136DPPC   C43 6793   7.259   3.364   4.596
  136DPPC   C44 6794   7.219   3.302   4.462
  136DPPC   C45 6795   7.145   3.398   4.369
  136DPPC   C46 6796   7.111   3.318   4.243
  136DPPC   C47 6797   7.057   3.416   4.138
  136DPPC   C48 6798   7.076   3.350   4.001
  136DPPC   C49 6799   6.979   3.232   3.990
  136DPPC   C50 6800   7.006   3.185   3.847
  137DPPC    C1 6801   3.093   6.128   5.016
  137DPPC    C2 6802   3.205   5.955   5.138
  137DPPC    C3 6803   3.310   6.168   5.075
  137DPPC    N4 6804   3.189   6.101   5.124
  137DPPC    C5 6805   3.156   6.173   5.248
  137DPPC    C6 6806   3.021   6.141   5.312
  137DPPC    O7 6807   2.906   6.210   5.263
  137DPPC    P8 6808   2.771   6.125   5.288
  137DPPC    O9 6809   2.658   6.200   5.230
  137DPPC   O10 6810   2.787   6.082   5.429
  137DPPC   O11 6811   2.801   5.998   5.195
  137DPPC   C12 6812   2.701   5.969   5.097
  137DPPC   C13 6813   2.736   5.837   5.029
  137DPPC   O14 6814   2.858   5.843   4.954
  137DPPC   C15 6815   2.928   5.728   4.938
  137DPPC   O16 6816   2.898   5.637   5.015
  137DPPC   C17 6817   3.054   5.721   4.852
  137DPPC   C18 6818   3.030   5.783   4.714
  137DPPC   C19 6819   3.155   5.757   4.630
  137DPPC   C20 6820   3.196   5.610   4.615
  137DPPC   C21 6821   3.302   5.602   4.505
  137DPPC   C22 6822   3.358   5.461   4.485
  137DPPC   C23 6823   3.480   5.444   4.394
  137DPPC   C24 6824   3.524   5.298   4.375
  137DPPC   C25 6825   3.638   5.283   4.274
  137DPPC   C26 6826   3.664   5.134   4.256
  137DPPC   C27 6827   3.785   5.100   4.169
  137DPPC   C28 6828   3.767   5.164   4.031
  137DPPC   C29 6829   3.857   5.100   3.925
  137DPPC   C30 6830   3.771   5.096   3.799
  137DPPC   C31 6831   3.832   5.007   3.690
  137DPPC   C32 6832   2.608   5.798   4.954
  137DPPC   O33 6833   2.544   5.901   4.878
  137DPPC   C34 6834   2.446   5.861   4.792
  137DPPC   O35 6835   2.417   5.742   4.780
  137DPPC   C36 6836   2.389   5.967   4.698
  137DPPC   C37 6837   2.354   5.921   4.556
  137DPPC   C38 6838   2.335   6.026   4.447
  137DPPC   C39 6839   2.304   5.956   4.315
  137DPPC   C40 6840   2.364   6.038   4.201
  137DPPC   C41 6841   2.273   6.155   4.164
  137DPPC   C42 6842   2.300   6.203   4.021
  137DPPC   C43 6843   2.274   6.084   3.929
  137DPPC   C44 6844   2.319   6.095   3.783
  137DPPC   C45 6845   2.266   5.976   3.702
  137DPPC   C46 6846   2.296   5.844   3.773
  137DPPC   C47 6847   2.235   5.729   3.694
  137DPPC   C48 6848   2.083   5.722   3.708
  137DPPC   C49 6849   2.012   5.613   3.628
  137DPPC   C50 6850   1.871   5.585   3.681
  138DPPC    C1 6851   2.074   2.673   5.671
  138DPPC    C2 6852   2.034   2.896   5.743
  138DPPC    C3 6853   2.204   2.763   5.833
  138DPPC    N4 6854   2.139   2.800   5.706
  138DPPC    C5 6855   2.225   2.836   5.593
  138DPPC    C6 6856   2.158   2.890   5.465
  138DPPC    O7 6857   2.079   2.804   5.384
  138DPPC    P8 6858   2.046   2.891   5.253
  138DPPC    O9 6859   1.989   3.011   5.319
  138DPPC   O10 6860   1.970   2.804   5.161
  138DPPC   O11 6861   2.201   2.911   5.213
  138DPPC   C12 6862   2.211   2.998   5.100
  138DPPC   C13 6863   2.349   3.060   5.079
  138DPPC   O14 6864   2.362   3.173   4.992
  138DPPC   C15 6865   2.340   3.299   5.038
  138DPPC   O16 6866   2.317   3.314   5.158
  138DPPC   C17 6867   2.341   3.411   4.933
  138DPPC   C18 6868   2.453   3.512   4.955
  138DPPC   C19 6869   2.452   3.620   4.846
  138DPPC   C20 6870   2.315   3.687   4.830
  138DPPC   C21 6871   2.305   3.777   4.706
  138DPPC   C22 6872   2.264   3.702   4.579
  138DPPC   C23 6873   2.261   3.802   4.463
  138DPPC   C24 6874   2.280   3.714   4.339
  138DPPC   C25 6875   2.301   3.783   4.204
  138DPPC   C26 6876   2.314   3.662   4.111
  138DPPC   C27 6877   2.333   3.705   3.965
  138DPPC   C28 6878   2.215   3.798   3.934
  138DPPC   C29 6879   2.252   3.883   3.812
  138DPPC   C30 6880   2.142   3.977   3.764
  138DPPC   C31 6881   2.033   3.889   3.703
  138DPPC   C32 6882   2.435   2.943   5.031
  138DPPC   O33 6883   2.369   2.876   4.923
  138DPPC   C34 6884   2.410   2.747   4.913
  138DPPC   O35 6885   2.474   2.698   5.006
  138DPPC   C36 6886   2.385   2.659   4.790
  138DPPC   C37 6887   2.447   2.727   4.667
  138DPPC   C38 6888   2.430   2.623   4.556
  138DPPC   C39 6889   2.288   2.589   4.512
  138DPPC   C40 6890   2.281   2.475   4.410
  138DPPC   C41 6891   2.136   2.460   4.362
  138DPPC   C42 6892   2.116   2.328   4.287
  138DPPC   C43 6893   1.971   2.328   4.240
  138DPPC   C44 6894   1.924   2.204   4.162
  138DPPC   C45 6895   1.772   2.206   4.182
  138DPPC   C46 6896   1.714   2.101   4.088
  138DPPC   C47 6897   1.561   2.097   4.099
  138DPPC   C48 6898   1.501   1.971   4.037
  138DPPC   C49 6899   1.354   1.946   4.070
  138DPPC   C50 6900   1.364   1.954   4.222
  139DPPC    C1 6901   9.075   3.794   5.348
  139DPPC    C2 6902   8.900   3.952   5.301
  139DPPC    C3 6903   8.899   3.819   5.497
  139DPPC    N4 6904   8.985   3.895   5.406
  139DPPC    C5 6905   9.054   3.993   5.491
  139DPPC    C6 6906   9.135   4.098   5.414
  139DPPC    O7 6907   9.205   4.182   5.508
  139DPPC    P8 6908   9.242   4.322   5.439
  139DPPC    O9 6909   9.274   4.426   5.540
  139DPPC   O10 6910   9.144   4.350   5.332
  139DPPC   O11 6911   9.371   4.278   5.354
  139DPPC   C12 6912   9.388   4.357   5.237
  139DPPC   C13 6913   9.454   4.282   5.121
  139DPPC   O14 6914   9.501   4.365   5.014
  139DPPC   C15 6915   9.614   4.441   5.024
  139DPPC   O16 6916   9.679   4.439   5.128
  139DPPC   C17 6917   9.627   4.551   4.919
  139DPPC   C18 6918   9.716   4.509   4.802
  139DPPC   C19 6919   9.715   4.604   4.682
  139DPPC   C20 6920   9.752   4.533   4.552
  139DPPC   C21 6921   9.733   4.617   4.425
  139DPPC   C22 6922   9.713   4.515   4.313
  139DPPC   C23 6923   9.722   4.589   4.179
  139DPPC   C24 6924   9.728   4.488   4.065
  139DPPC   C25 6925   9.736   4.557   3.929
  139DPPC   C26 6926   9.740   4.446   3.824
  139DPPC   C27 6927   9.796   4.496   3.691
  139DPPC   C28 6928   9.715   4.604   3.619
  139DPPC   C29 6929   9.794   4.628   3.490
  139DPPC   C30 6930   9.721   4.728   3.400
  139DPPC   C31 6931   9.782   4.743   3.261
  139DPPC   C32 6932   9.355   4.170   5.091
  139DPPC   O33 6933   9.416   4.044   5.063
  139DPPC   C34 6934   9.333   3.936   5.066
  139DPPC   O35 6935   9.220   3.957   5.110
  139DPPC   C36 6936   9.374   3.800   5.011
  139DPPC   C37 6937   9.338   3.802   4.862
  139DPPC   C38 6938   9.386   3.679   4.783
  139DPPC   C39 6939   9.340   3.708   4.640
  139DPPC   C40 6940   9.343   3.597   4.535
  139DPPC   C41 6941   9.286   3.648   4.402
  139DPPC   C42 6942   9.253   3.522   4.322
  139DPPC   C43 6943   9.231   3.555   4.174
  139DPPC   C44 6944   9.114   3.649   4.147
  139DPPC   C45 6945   9.086   3.654   3.997
  139DPPC   C46 6946   9.169   3.747   3.908
  139DPPC   C47 6947   9.149   3.716   3.759
  139DPPC   C48 6948   9.219   3.813   3.664
  139DPPC   C49 6949   9.197   3.755   3.524
  139DPPC   C50 6950   9.270   3.837   3.417
  140DPPC    C1 6951   0.169   2.436   5.361
  140DPPC    C2 6952   0.302   2.562   5.530
  140DPPC    C3 6953   0.145   2.657   5.404
  140DPPC    N4 6954   0.170   2.530   5.474
  140DPPC    C5 6955   0.081   2.508   5.589
  140DPPC    C6 6956  -0.062   2.455   5.571
  140DPPC    O7 6957  -0.136   2.548   5.491
  140DPPC    P8 6958  -0.291   2.516   5.466
  140DPPC    O9 6959  -0.337   2.644   5.407
  140DPPC   O10 6960  -0.353   2.460   5.589
  140DPPC   O11 6961  -0.277   2.408   5.348
  140DPPC   C12 6962  -0.236   2.459   5.221
  140DPPC   C13 6963  -0.243   2.345   5.118
  140DPPC   O14 6964  -0.144   2.340   5.014
  140DPPC   C15 6965  -0.019   2.290   5.028
  140DPPC   O16 6966   0.035   2.247   5.131
  140DPPC   C17 6967   0.044   2.251   4.894
  140DPPC   C18 6968   0.096   2.375   4.821
  140DPPC   C19 6969   0.130   2.337   4.676
  140DPPC   C20 6970   0.262   2.399   4.629
  140DPPC   C21 6971   0.289   2.386   4.479
  140DPPC   C22 6972   0.423   2.451   4.444
  140DPPC   C23 6973   0.501   2.381   4.332
  140DPPC   C24 6974   0.421   2.380   4.202
  140DPPC   C25 6975   0.505   2.349   4.078
  140DPPC   C26 6976   0.442   2.317   3.942
  140DPPC   C27 6977   0.548   2.297   3.833
  140DPPC   C28 6978   0.490   2.254   3.698
  140DPPC   C29 6979   0.380   2.148   3.709
  140DPPC   C30 6980   0.362   2.081   3.572
  140DPPC   C31 6981   0.263   1.965   3.585
  140DPPC   C32 6982  -0.384   2.364   5.061
  140DPPC   O33 6983  -0.409   2.500   5.027
  140DPPC   C34 6984  -0.495   2.535   4.927
  140DPPC   O35 6985  -0.512   2.469   4.824
  140DPPC   C36 6986  -0.559   2.674   4.935
  140DPPC   C37 6987  -0.704   2.625   4.942
  140DPPC   C38 6988  -0.784   2.706   4.841
  140DPPC   C39 6989  -0.935   2.688   4.865
  140DPPC   C40 6990  -0.993   2.805   4.785
  140DPPC   C41 6991  -0.961   2.792   4.636
  140DPPC   C42 6992  -1.004   2.914   4.553
  140DPPC   C43 6993  -0.981   2.892   4.404
  140DPPC   C44 6994  -1.045   3.000   4.317
  140DPPC   C45 6995  -1.020   2.959   4.172
  140DPPC   C46 6996  -1.084   2.822   4.145
  140DPPC   C47 6997  -1.027   2.775   4.012
  140DPPC   C48 6998  -1.126   2.792   3.896
  140DPPC   C49 6999  -1.104   2.685   3.789
  140DPPC   C50 7000  -0.970   2.723   3.724
  141DPPC    C1 7001   5.854   1.746   6.253
  141DPPC    C2 7002   5.700   1.613   6.143
  141DPPC    C3 7003   5.621   1.816   6.210
  141DPPC    N4 7004   5.742   1.753   6.158
  141DPPC    C5 7005   5.771   1.805   6.023
  141DPPC    C6 7006   5.815   1.952   6.019
  141DPPC    O7 7007   5.702   2.040   6.021
  141DPPC    P8 7008   5.747   2.178   5.952
  141DPPC    O9 7009   5.875   2.209   6.019
  141DPPC   O10 7010   5.626   2.264   5.955
  141DPPC   O11 7011   5.765   2.134   5.798
  141DPPC   C12 7012   5.648   2.096   5.726
  141DPPC   C13 7013   5.672   2.087   5.575
  141DPPC   O14 7014   5.754   1.985   5.515
  141DPPC   C15 7015   5.678   1.887   5.460
  141DPPC   O16 7016   5.557   1.874   5.471
  141DPPC   C17 7017   5.763   1.773   5.403
  141DPPC   C18 7018   5.771   1.787   5.251
  141DPPC   C19 7019   5.842   1.669   5.185
  141DPPC   C20 7020   5.776   1.640   5.050
  141DPPC   C21 7021   5.625   1.623   5.073
  141DPPC   C22 7022   5.546   1.569   4.953
  141DPPC   C23 7023   5.555   1.664   4.834
  141DPPC   C24 7024   5.504   1.600   4.705
  141DPPC   C25 7025   5.562   1.461   4.680
  141DPPC   C26 7026   5.521   1.406   4.543
  141DPPC   C27 7027   5.614   1.466   4.437
  141DPPC   C28 7028   5.580   1.412   4.298
  141DPPC   C29 7029   5.439   1.461   4.264
  141DPPC   C30 7030   5.431   1.596   4.193
  141DPPC   C31 7031   5.289   1.652   4.181
  141DPPC   C32 7032   5.729   2.224   5.538
  141DPPC   O33 7033   5.634   2.331   5.543
  141DPPC   C34 7034   5.682   2.457   5.528
  141DPPC   O35 7035   5.803   2.468   5.546
  141DPPC   C36 7036   5.586   2.575   5.508
  141DPPC   C37 7037   5.552   2.607   5.362
  141DPPC   C38 7038   5.493   2.490   5.285
  141DPPC   C39 7039   5.450   2.544   5.148
  141DPPC   C40 7040   5.569   2.577   5.058
  141DPPC   C41 7041   5.523   2.624   4.921
  141DPPC   C42 7042   5.635   2.614   4.817
  141DPPC   C43 7043   5.590   2.651   4.676
  141DPPC   C44 7044   5.470   2.563   4.643
  141DPPC   C45 7045   5.416   2.604   4.506
  141DPPC   C46 7046   5.358   2.745   4.507
  141DPPC   C47 7047   5.320   2.791   4.366
  141DPPC   C48 7048   5.429   2.804   4.260
  141DPPC   C49 7049   5.367   2.843   4.125
  141DPPC   C50 7050   5.262   2.746   4.071
  142DPPC    C1 7051   1.567   6.006   4.954
  142DPPC    C2 7052   1.575   6.237   4.982
  142DPPC    C3 7053   1.622   6.148   4.772
  142DPPC    N4 7054   1.533   6.133   4.887
  142DPPC    C5 7055   1.394   6.120   4.842
  142DPPC    C6 7056   1.311   6.247   4.822
  142DPPC    O7 7057   1.348   6.329   4.711
  142DPPC    P8 7058   1.297   6.481   4.732
  142DPPC    O9 7059   1.385   6.566   4.649
  142DPPC   O10 7060   1.276   6.504   4.877
  142DPPC   O11 7061   1.155   6.471   4.656
  142DPPC   C12 7062   1.172   6.432   4.519
  142DPPC   C13 7063   1.045   6.458   4.437
  142DPPC   O14 7064   1.040   6.373   4.322
  142DPPC   C15 7065   0.923   6.363   4.254
  142DPPC   O16 7066   0.812   6.392   4.298
  142DPPC   C17 7067   0.937   6.285   4.123
  142DPPC   C18 7068   0.831   6.317   4.016
  142DPPC   C19 7069   0.876   6.230   3.898
  142DPPC   C20 7070   0.778   6.206   3.784
  142DPPC   C21 7071   0.649   6.149   3.845
  142DPPC   C22 7072   0.667   6.002   3.882
  142DPPC   C23 7073   0.537   5.961   3.951
  142DPPC   C24 7074   0.541   5.825   4.021
  142DPPC   C25 7075   0.408   5.750   4.029
  142DPPC   C26 7076   0.311   5.848   4.096
  142DPPC   C27 7077   0.174   5.782   4.117
  142DPPC   C28 7078   0.068   5.869   4.183
  142DPPC   C29 7079  -0.065   5.794   4.200
  142DPPC   C30 7080  -0.070   5.659   4.271
  142DPPC   C31 7081  -0.197   5.577   4.249
  142DPPC   C32 7082   1.039   6.607   4.404
  142DPPC   O33 7083   1.149   6.672   4.339
  142DPPC   C34 7084   1.112   6.799   4.307
  142DPPC   O35 7085   1.026   6.863   4.366
  142DPPC   C36 7086   1.223   6.864   4.223
  142DPPC   C37 7087   1.201   7.014   4.209
  142DPPC   C38 7088   1.091   7.050   4.108
  142DPPC   C39 7089   1.086   7.194   4.058
  142DPPC   C40 7090   0.972   7.224   3.960
  142DPPC   C41 7091   0.976   7.131   3.839
  142DPPC   C42 7092   0.906   7.193   3.718
  142DPPC   C43 7093   0.762   7.208   3.768
  142DPPC   C44 7094   0.676   7.294   3.674
  142DPPC   C45 7095   0.742   7.432   3.676
  142DPPC   C46 7096   0.677   7.515   3.565
  142DPPC   C47 7097   0.737   7.655   3.558
  142DPPC   C48 7098   0.686   7.746   3.446
  142DPPC   C49 7099   0.749   7.697   3.316
  142DPPC   C50 7100   0.897   7.733   3.304
  143DPPC    C1 7101   0.317   0.000   5.242
  143DPPC    C2 7102   0.137   0.144   5.326
  143DPPC    C3 7103   0.355   0.161   5.414
  143DPPC    N4 7104   0.279   0.133   5.292
  143DPPC    C5 7105   0.310   0.230   5.186
  143DPPC    C6 7106   0.271   0.378   5.191
  143DPPC    O7 7107   0.383   0.452   5.240
  143DPPC    P8 7108   0.335   0.604   5.264
  143DPPC    O9 7109   0.458   0.679   5.296
  143DPPC   O10 7110   0.225   0.589   5.362
  143DPPC   O11 7111   0.305   0.630   5.108
  143DPPC   C12 7112   0.399   0.721   5.049
  143DPPC   C13 7113   0.382   0.768   4.905
  143DPPC   O14 7114   0.293   0.880   4.897
  143DPPC   C15 7115   0.347   1.004   4.903
  143DPPC   O16 7116   0.453   1.020   4.962
  143DPPC   C17 7117   0.272   1.120   4.835
  143DPPC   C18 7118   0.168   1.069   4.735
  143DPPC   C19 7119   0.030   1.101   4.793
  143DPPC   C20 7120  -0.086   1.066   4.700
  143DPPC   C21 7121  -0.134   1.191   4.626
  143DPPC   C22 7122  -0.264   1.164   4.550
  143DPPC   C23 7123  -0.232   1.043   4.463
  143DPPC   C24 7124  -0.364   1.003   4.396
  143DPPC   C25 7125  -0.410   1.108   4.295
  143DPPC   C26 7126  -0.547   1.084   4.233
  143DPPC   C27 7127  -0.576   1.198   4.135
  143DPPC   C28 7128  -0.489   1.215   4.010
  143DPPC   C29 7129  -0.518   1.091   3.925
  143DPPC   C30 7130  -0.430   1.098   3.800
  143DPPC   C31 7131  -0.484   1.223   3.730
  143DPPC   C32 7132   0.361   0.643   4.819
  143DPPC   O33 7133   0.311   0.665   4.686
  143DPPC   C34 7134   0.277   0.552   4.620
  143DPPC   O35 7135   0.226   0.463   4.688
  143DPPC   C36 7136   0.233   0.573   4.475
  143DPPC   C37 7137   0.165   0.447   4.421
  143DPPC   C38 7138   0.095   0.459   4.285
  143DPPC   C39 7139  -0.021   0.558   4.302
  143DPPC   C40 7140  -0.102   0.580   4.174
  143DPPC   C41 7141  -0.010   0.645   4.070
  143DPPC   C42 7142  -0.037   0.569   3.940
  143DPPC   C43 7143   0.044   0.623   3.822
  143DPPC   C44 7144   0.032   0.772   3.793
  143DPPC   C45 7145   0.123   0.792   3.671
  143DPPC   C46 7146   0.158   0.936   3.634
  143DPPC   C47 7147   0.247   0.929   3.510
  143DPPC   C48 7148   0.293   1.063   3.453
  143DPPC   C49 7149   0.194   1.173   3.415
  143DPPC   C50 7150   0.263   1.295   3.352
  144DPPC    C1 7151   8.715   0.227   5.694
  144DPPC    C2 7152   8.918   0.343   5.745
  144DPPC    C3 7153   8.913   0.112   5.683
  144DPPC    N4 7154   8.855   0.244   5.655
  144DPPC    C5 7155   8.867   0.279   5.513
  144DPPC    C6 7156   8.871   0.428   5.476
  144DPPC    O7 7157   8.760   0.512   5.507
  144DPPC    P8 7158   8.805   0.663   5.474
  144DPPC    O9 7159   8.939   0.660   5.536
  144DPPC   O10 7160   8.694   0.738   5.537
  144DPPC   O11 7161   8.799   0.658   5.313
  144DPPC   C12 7162   8.664   0.675   5.271
  144DPPC   C13 7163   8.648   0.633   5.125
  144DPPC   O14 7164   8.515   0.653   5.073
  144DPPC   C15 7165   8.495   0.776   5.018
  144DPPC   O16 7166   8.541   0.883   5.057
  144DPPC   C17 7167   8.371   0.791   4.929
  144DPPC   C18 7168   8.392   0.837   4.784
  144DPPC   C19 7169   8.488   0.739   4.717
  144DPPC   C20 7170   8.523   0.778   4.573
  144DPPC   C21 7171   8.395   0.760   4.492
  144DPPC   C22 7172   8.432   0.769   4.343
  144DPPC   C23 7173   8.524   0.890   4.326
  144DPPC   C24 7174   8.548   0.933   4.181
  144DPPC   C25 7175   8.430   0.978   4.095
  144DPPC   C26 7176   8.485   1.040   3.967
  144DPPC   C27 7177   8.557   0.943   3.872
  144DPPC   C28 7178   8.628   1.033   3.771
  144DPPC   C29 7179   8.685   0.960   3.649
  144DPPC   C30 7180   8.565   0.885   3.589
  144DPPC   C31 7181   8.610   0.833   3.452
  144DPPC   C32 7182   8.711   0.494   5.114
  144DPPC   O33 7183   8.706   0.439   4.982
  144DPPC   C34 7184   8.820   0.473   4.917
  144DPPC   O35 7185   8.915   0.517   4.982
  144DPPC   C36 7186   8.843   0.411   4.779
  144DPPC   C37 7187   8.714   0.395   4.699
  144DPPC   C38 7188   8.729   0.273   4.609
  144DPPC   C39 7189   8.607   0.280   4.517
  144DPPC   C40 7190   8.608   0.157   4.426
  144DPPC   C41 7191   8.527   0.171   4.296
  144DPPC   C42 7192   8.536   0.040   4.217
  144DPPC   C43 7193   8.419   0.040   4.118
  144DPPC   C44 7194   8.451  -0.053   4.001
  144DPPC   C45 7195   8.315  -0.082   3.936
  144DPPC   C46 7196   8.252   0.048   3.883
  144DPPC   C47 7197   8.115   0.043   3.815
  144DPPC   C48 7198   8.093   0.167   3.727
  144DPPC   C49 7199   8.125   0.294   3.806
  144DPPC   C50 7200   8.099   0.423   3.728
  145DPPC    C1 7201   8.047   5.564   5.583
  145DPPC    C2 7202   8.296   5.580   5.614
  145DPPC    C3 7203   8.214   5.381   5.549
  145DPPC    N4 7204   8.182   5.524   5.540
  145DPPC    C5 7205   8.186   5.552   5.396
  145DPPC    C6 7206   8.208   5.700   5.359
  145DPPC    O7 7207   8.224   5.719   5.219
  145DPPC    P8 7208   8.228   5.877   5.187
  145DPPC    O9 7209   8.291   5.882   5.054
  145DPPC   O10 7210   8.291   5.941   5.305
  145DPPC   O11 7211   8.069   5.861   5.175
  145DPPC   C12 7212   8.043   5.829   5.038
  145DPPC   C13 7213   7.900   5.783   5.006
  145DPPC   O14 7214   7.900   5.718   4.878
  145DPPC   C15 7215   7.803   5.627   4.849
  145DPPC   O16 7216   7.723   5.599   4.938
  145DPPC   C17 7217   7.777   5.600   4.701
  145DPPC   C18 7218   7.668   5.703   4.669
  145DPPC   C19 7219   7.627   5.671   4.525
  145DPPC   C20 7220   7.488   5.609   4.533
  145DPPC   C21 7221   7.450   5.550   4.397
  145DPPC   C22 7222   7.420   5.673   4.311
  145DPPC   C23 7223   7.309   5.764   4.364
  145DPPC   C24 7224   7.319   5.902   4.299
  145DPPC   C25 7225   7.186   5.976   4.284
  145DPPC   C26 7226   7.227   6.115   4.235
  145DPPC   C27 7227   7.274   6.124   4.090
  145DPPC   C28 7228   7.158   6.096   3.994
  145DPPC   C29 7229   7.207   6.070   3.851
  145DPPC   C30 7230   7.289   5.941   3.849
  145DPPC   C31 7231   7.336   5.915   3.706
  145DPPC   C32 7232   7.798   5.892   5.037
  145DPPC   O33 7233   7.804   6.006   4.951
  145DPPC   C34 7234   7.694   6.084   4.968
  145DPPC   O35 7235   7.620   6.073   5.066
  145DPPC   C36 7236   7.650   6.156   4.841
  145DPPC   C37 7237   7.555   6.071   4.755
  145DPPC   C38 7238   7.499   6.148   4.635
  145DPPC   C39 7239   7.594   6.189   4.523
  145DPPC   C40 7240   7.523   6.268   4.412
  145DPPC   C41 7241   7.607   6.323   4.296
  145DPPC   C42 7242   7.657   6.195   4.228
  145DPPC   C43 7243   7.716   6.219   4.089
  145DPPC   C44 7244   7.606   6.279   4.002
  145DPPC   C45 7245   7.657   6.302   3.860
  145DPPC   C46 7246   7.542   6.373   3.788
  145DPPC   C47 7247   7.598   6.409   3.650
  145DPPC   C48 7248   7.627   6.283   3.567
  145DPPC   C49 7249   7.684   6.301   3.426
  145DPPC   C50 7250   7.820   6.368   3.444
  146DPPC    C1 7251   6.914   4.107   5.860
  146DPPC    C2 7252   7.115   4.121   5.992
  146DPPC    C3 7253   6.925   4.062   6.098
  146DPPC    N4 7254   6.992   4.045   5.968
  146DPPC    C5 7255   7.035   3.906   5.945
  146DPPC    C6 7256   6.927   3.812   5.890
  146DPPC    O7 7257   6.970   3.677   5.868
  146DPPC    P8 7258   6.847   3.581   5.831
  146DPPC    O9 7259   6.722   3.628   5.896
  146DPPC   O10 7260   6.892   3.440   5.833
  146DPPC   O11 7261   6.829   3.619   5.675
  146DPPC   C12 7262   6.915   3.538   5.595
  146DPPC   C13 7263   6.937   3.567   5.446
  146DPPC   O14 7264   7.041   3.660   5.413
  146DPPC   C15 7265   7.173   3.632   5.434
  146DPPC   O16 7266   7.210   3.562   5.529
  146DPPC   C17 7267   7.264   3.739   5.375
  146DPPC   C18 7268   7.198   3.824   5.267
  146DPPC   C19 7269   7.222   3.758   5.131
  146DPPC   C20 7270   7.375   3.757   5.123
  146DPPC   C21 7271   7.413   3.708   4.984
  146DPPC   C22 7272   7.354   3.812   4.888
  146DPPC   C23 7273   7.409   3.785   4.748
  146DPPC   C24 7274   7.561   3.805   4.735
  146DPPC   C25 7275   7.589   3.806   4.585
  146DPPC   C26 7276   7.581   3.663   4.532
  146DPPC   C27 7277   7.621   3.678   4.385
  146DPPC   C28 7278   7.553   3.803   4.329
  146DPPC   C29 7279   7.601   3.842   4.189
  146DPPC   C30 7280   7.533   3.974   4.151
  146DPPC   C31 7281   7.517   3.978   3.999
  146DPPC   C32 7282   6.810   3.620   5.378
  146DPPC   O33 7283   6.714   3.521   5.339
  146DPPC   C34 7284   6.611   3.572   5.267
  146DPPC   O35 7285   6.613   3.682   5.214
  146DPPC   C36 7286   6.489   3.479   5.267
  146DPPC   C37 7287   6.422   3.478   5.129
  146DPPC   C38 7288   6.332   3.361   5.091
  146DPPC   C39 7289   6.240   3.418   4.982
  146DPPC   C40 7290   6.308   3.449   4.848
  146DPPC   C41 7291   6.216   3.512   4.743
  146DPPC   C42 7292   6.284   3.531   4.607
  146DPPC   C43 7293   6.186   3.608   4.518
  146DPPC   C44 7294   6.217   3.568   4.373
  146DPPC   C45 7295   6.104   3.626   4.288
  146DPPC   C46 7296   6.117   3.558   4.152
  146DPPC   C47 7297   6.014   3.626   4.060
  146DPPC   C48 7298   6.005   3.573   3.917
  146DPPC   C49 7299   5.887   3.633   3.841
  146DPPC   C50 7300   5.755   3.592   3.907
  147DPPC    C1 7301   8.270   3.054   6.176
  147DPPC    C2 7302   8.124   2.865   6.180
  147DPPC    C3 7303   8.034   3.087   6.213
  147DPPC    N4 7304   8.135   3.007   6.143
  147DPPC    C5 7305   8.113   3.003   5.997
  147DPPC    C6 7306   8.122   3.135   5.921
  147DPPC    O7 7307   8.024   3.238   5.936
  147DPPC    P8 7308   8.101   3.378   5.917
  147DPPC    O9 7309   8.220   3.351   6.001
  147DPPC   O10 7310   8.014   3.496   5.933
  147DPPC   O11 7311   8.135   3.350   5.762
  147DPPC   C12 7312   8.013   3.394   5.701
  147DPPC   C13 7313   8.056   3.384   5.554
  147DPPC   O14 7314   7.963   3.451   5.468
  147DPPC   C15 7315   8.008   3.572   5.424
  147DPPC   O16 7316   8.104   3.622   5.482
  147DPPC   C17 7317   7.910   3.637   5.326
  147DPPC   C18 7318   7.936   3.595   5.181
  147DPPC   C19 7319   7.800   3.607   5.112
  147DPPC   C20 7320   7.821   3.570   4.965
  147DPPC   C21 7321   7.919   3.673   4.906
  147DPPC   C22 7322   7.940   3.640   4.758
  147DPPC   C23 7323   8.022   3.750   4.691
  147DPPC   C24 7324   8.025   3.704   4.545
  147DPPC   C25 7325   8.051   3.827   4.458
  147DPPC   C26 7326   8.063   3.793   4.310
  147DPPC   C27 7327   8.063   3.920   4.225
  147DPPC   C28 7328   7.942   4.008   4.257
  147DPPC   C29 7329   7.950   4.143   4.186
  147DPPC   C30 7330   7.812   4.211   4.194
  147DPPC   C31 7331   7.810   4.332   4.102
  147DPPC   C32 7332   8.088   3.236   5.532
  147DPPC   O33 7333   7.982   3.151   5.576
  147DPPC   C34 7334   8.005   3.018   5.588
  147DPPC   O35 7335   8.109   2.959   5.618
  147DPPC   C36 7336   7.878   2.935   5.616
  147DPPC   C37 7337   7.884   2.795   5.555
  147DPPC   C38 7338   7.885   2.791   5.403
  147DPPC   C39 7339   7.860   2.649   5.352
  147DPPC   C40 7340   7.868   2.656   5.200
  147DPPC   C41 7341   7.765   2.743   5.127
  147DPPC   C42 7342   7.792   2.730   4.976
  147DPPC   C43 7343   7.678   2.809   4.912
  147DPPC   C44 7344   7.688   2.789   4.761
  147DPPC   C45 7345   7.571   2.866   4.700
  147DPPC   C46 7346   7.565   2.866   4.547
  147DPPC   C47 7347   7.434   2.937   4.513
  147DPPC   C48 7348   7.385   2.942   4.368
  147DPPC   C49 7349   7.236   2.970   4.346
  147DPPC   C50 7350   7.195   2.973   4.199
  148DPPC    C1 7351   2.650   6.481   5.462
  148DPPC    C2 7352   2.874   6.505   5.526
  148DPPC    C3 7353   2.806   6.533   5.295
  148DPPC    N4 7354   2.771   6.560   5.436
  148DPPC    C5 7355   2.763   6.703   5.466
  148DPPC    C6 7356   2.845   6.809   5.391
  148DPPC    O7 7357   2.985   6.783   5.383
  148DPPC    P8 7358   3.072   6.917   5.407
  148DPPC    O9 7359   3.213   6.876   5.395
  148DPPC   O10 7360   3.034   6.983   5.534
  148DPPC   O11 7361   3.011   6.993   5.279
  148DPPC   C12 7362   3.070   6.967   5.152
  148DPPC   C13 7363   2.978   7.011   5.038
  148DPPC   O14 7364   3.012   6.943   4.917
  148DPPC   C15 7365   2.990   6.811   4.892
  148DPPC   O16 7366   2.923   6.746   4.973
  148DPPC   C17 7367   3.047   6.747   4.766
  148DPPC   C18 7368   2.952   6.658   4.685
  148DPPC   C19 7369   3.015   6.583   4.567
  148DPPC   C20 7370   3.103   6.692   4.505
  148DPPC   C21 7371   3.199   6.612   4.416
  148DPPC   C22 7372   3.257   6.703   4.308
  148DPPC   C23 7373   3.162   6.786   4.222
  148DPPC   C24 7374   3.241   6.858   4.113
  148DPPC   C25 7375   3.300   6.765   4.007
  148DPPC   C26 7376   3.344   6.844   3.884
  148DPPC   C27 7377   3.456   6.762   3.819
  148DPPC   C28 7378   3.526   6.838   3.706
  148DPPC   C29 7379   3.615   6.744   3.625
  148DPPC   C30 7380   3.668   6.815   3.500
  148DPPC   C31 7381   3.792   6.731   3.465
  148DPPC   C32 7382   2.994   7.163   5.041
  148DPPC   O33 7383   3.126   7.215   5.061
  148DPPC   C34 7384   3.126   7.351   5.075
  148DPPC   O35 7385   3.018   7.409   5.073
  148DPPC   C36 7386   3.254   7.434   5.064
  148DPPC   C37 7387   3.294   7.494   4.929
  148DPPC   C38 7388   3.418   7.582   4.942
  148DPPC   C39 7389   3.491   7.604   4.809
  148DPPC   C40 7390   3.540   7.467   4.761
  148DPPC   C41 7391   3.599   7.484   4.621
  148DPPC   C42 7392   3.707   7.592   4.613
  148DPPC   C43 7393   3.755   7.605   4.469
  148DPPC   C44 7394   3.870   7.514   4.425
  148DPPC   C45 7395   3.916   7.544   4.282
  148DPPC   C46 7396   3.978   7.419   4.219
  148DPPC   C47 7397   4.004   7.456   4.072
  148DPPC   C48 7398   4.085   7.352   3.994
  148DPPC   C49 7399   4.097   7.392   3.847
  148DPPC   C50 7400   4.190   7.295   3.773
  149DPPC    C1 7401   5.213   0.487   5.290
  149DPPC    C2 7402   5.275   0.542   5.065
  149DPPC    C3 7403   5.112   0.660   5.191
  149DPPC    N4 7404   5.245   0.597   5.198
  149DPPC    C5 7405   5.340   0.697   5.247
  149DPPC    C6 7406   5.428   0.676   5.370
  149DPPC    O7 7407   5.522   0.778   5.408
  149DPPC    P8 7408   5.637   0.723   5.506
  149DPPC    O9 7409   5.596   0.591   5.558
  149DPPC   O10 7410   5.707   0.826   5.587
  149DPPC   O11 7411   5.727   0.661   5.388
  149DPPC   C12 7412   5.818   0.760   5.337
  149DPPC   C13 7413   5.843   0.745   5.187
  149DPPC   O14 7414   5.961   0.816   5.145
  149DPPC   C15 7415   6.070   0.765   5.083
  149DPPC   O16 7416   6.098   0.646   5.096
  149DPPC   C17 7417   6.168   0.871   5.033
  149DPPC   C18 7418   6.152   0.879   4.881
  149DPPC   C19 7419   6.263   0.958   4.812
  149DPPC   C20 7420   6.258   0.939   4.660
  149DPPC   C21 7421   6.343   1.033   4.575
  149DPPC   C22 7422   6.354   0.965   4.438
  149DPPC   C23 7423   6.433   1.062   4.351
  149DPPC   C24 7424   6.463   1.010   4.210
  149DPPC   C25 7425   6.567   1.114   4.167
  149DPPC   C26 7426   6.555   1.176   4.028
  149DPPC   C27 7427   6.676   1.269   4.020
  149DPPC   C28 7428   6.672   1.339   3.884
  149DPPC   C29 7429   6.771   1.457   3.882
  149DPPC   C30 7430   6.754   1.545   3.759
  149DPPC   C31 7431   6.625   1.628   3.754
  149DPPC   C32 7432   5.708   0.769   5.119
  149DPPC   O33 7433   5.707   0.758   4.977
  149DPPC   C34 7434   5.587   0.804   4.933
  149DPPC   O35 7435   5.483   0.807   4.998
  149DPPC   C36 7436   5.574   0.812   4.780
  149DPPC   C37 7437   5.587   0.955   4.728
  149DPPC   C38 7438   5.586   0.972   4.576
  149DPPC   C39 7439   5.706   0.934   4.488
  149DPPC   C40 7440   5.704   0.979   4.342
  149DPPC   C41 7441   5.823   0.925   4.263
  149DPPC   C42 7442   5.935   1.022   4.225
  149DPPC   C43 7443   5.859   1.136   4.158
  149DPPC   C44 7444   5.932   1.184   4.033
  149DPPC   C45 7445   5.856   1.304   3.976
  149DPPC   C46 7446   5.901   1.361   3.842
  149DPPC   C47 7447   5.818   1.481   3.795
  149DPPC   C48 7448   5.668   1.458   3.775
  149DPPC   C49 7449   5.594   1.591   3.759
  149DPPC   C50 7450   5.441   1.586   3.753
  150DPPC    C1 7451   4.700   0.892   5.897
  150DPPC    C2 7452   4.833   0.718   5.825
  150DPPC    C3 7453   4.742   0.878   5.666
  150DPPC    N4 7454   4.803   0.860   5.798
  150DPPC    C5 7455   4.912   0.957   5.814
  150DPPC    C6 7456   5.040   0.942   5.731
  150DPPC    O7 7457   5.032   0.973   5.592
  150DPPC    P8 7458   5.165   0.947   5.504
  150DPPC    O9 7459   5.192   0.808   5.548
  150DPPC   O10 7460   5.266   1.052   5.529
  150DPPC   O11 7461   5.099   0.944   5.358
  150DPPC   C12 7462   5.054   1.078   5.339
  150DPPC   C13 7463   4.925   1.111   5.263
  150DPPC   O14 7464   4.799   1.074   5.322
  150DPPC   C15 7465   4.714   1.176   5.349
  150DPPC   O16 7466   4.742   1.292   5.320
  150DPPC   C17 7467   4.572   1.141   5.394
  150DPPC   C18 7468   4.472   1.237   5.331
  150DPPC   C19 7469   4.392   1.153   5.231
  150DPPC   C20 7470   4.284   1.240   5.167
  150DPPC   C21 7471   4.188   1.169   5.072
  150DPPC   C22 7472   4.094   1.273   5.011
  150DPPC   C23 7473   3.962   1.196   4.994
  150DPPC   C24 7474   3.852   1.276   4.924
  150DPPC   C25 7475   3.739   1.185   4.875
  150DPPC   C26 7476   3.641   1.269   4.793
  150DPPC   C27 7477   3.523   1.175   4.764
  150DPPC   C28 7478   3.406   1.271   4.744
  150DPPC   C29 7479   3.285   1.206   4.677
  150DPPC   C30 7480   3.332   1.170   4.536
  150DPPC   C31 7481   3.219   1.088   4.472
  150DPPC   C32 7482   4.941   1.050   5.123
  150DPPC   O33 7483   5.059   1.087   5.051
  150DPPC   C34 7484   5.110   1.008   4.953
  150DPPC   O35 7485   5.072   0.891   4.949
  150DPPC   C36 7486   5.210   1.071   4.856
  150DPPC   C37 7487   5.142   1.106   4.723
  150DPPC   C38 7488   5.228   1.193   4.631
  150DPPC   C39 7489   5.159   1.225   4.498
  150DPPC   C40 7490   5.144   1.104   4.406
  150DPPC   C41 7491   5.063   1.153   4.286
  150DPPC   C42 7492   5.020   1.044   4.188
  150DPPC   C43 7493   4.888   1.076   4.116
  150DPPC   C44 7494   4.775   1.105   4.215
  150DPPC   C45 7495   4.641   1.113   4.142
  150DPPC   C46 7496   4.544   1.193   4.230
  150DPPC   C47 7497   4.403   1.162   4.181
  150DPPC   C48 7498   4.406   1.195   4.032
  150DPPC   C49 7499   4.264   1.199   3.975
  150DPPC   C50 7500   4.264   1.245   3.829
  151DPPC    C1 7501   0.996   0.898   5.175
  151DPPC    C2 7502   1.124   0.739   5.059
  151DPPC    C3 7503   1.016   0.681   5.266
  151DPPC    N4 7504   1.003   0.756   5.140
  151DPPC    C5 7505   0.892   0.725   5.048
  151DPPC    C6 7506   0.805   0.605   5.087
  151DPPC    O7 7507   0.712   0.563   4.987
  151DPPC    P8 7508   0.682   0.406   5.002
  151DPPC    O9 7509   0.546   0.360   4.965
  151DPPC   O10 7510   0.754   0.358   5.122
  151DPPC   O11 7511   0.764   0.383   4.865
  151DPPC   C12 7512   0.670   0.399   4.758
  151DPPC   C13 7513   0.723   0.427   4.617
  151DPPC   O14 7514   0.761   0.313   4.538
  151DPPC   C15 7515   0.877   0.246   4.558
  151DPPC   O16 7516   0.954   0.270   4.652
  151DPPC   C17 7517   0.898   0.131   4.460
  151DPPC   C18 7518   0.935   0.175   4.318
  151DPPC   C19 7519   0.962   0.053   4.228
  151DPPC   C20 7520   1.044   0.090   4.105
  151DPPC   C21 7521   0.967   0.180   4.008
  151DPPC   C22 7522   0.858   0.106   3.931
  151DPPC   C23 7523   0.918   0.009   3.829
  151DPPC   C24 7524   0.812  -0.071   3.753
  151DPPC   C25 7525   0.719   0.021   3.674
  151DPPC   C26 7526   0.621  -0.047   3.578
  151DPPC   C27 7527   0.558   0.054   3.482
  151DPPC   C28 7528   0.481   0.161   3.560
  151DPPC   C29 7529   0.390   0.260   3.487
  151DPPC   C30 7530   0.350   0.381   3.571
  151DPPC   C31 7531   0.278   0.495   3.498
  151DPPC   C32 7532   0.824   0.542   4.628
  151DPPC   O33 7533   0.755   0.656   4.682
  151DPPC   C34 7534   0.825   0.770   4.705
  151DPPC   O35 7535   0.947   0.764   4.694
  151DPPC   C36 7536   0.749   0.902   4.716
  151DPPC   C37 7537   0.678   0.927   4.583
  151DPPC   C38 7538   0.529   0.960   4.582
  151DPPC   C39 7539   0.468   0.940   4.443
  151DPPC   C40 7540   0.317   0.955   4.429
  151DPPC   C41 7541   0.278   0.942   4.281
  151DPPC   C42 7542   0.131   0.983   4.272
  151DPPC   C43 7543   0.080   0.991   4.128
  151DPPC   C44 7544   0.176   1.094   4.068
  151DPPC   C45 7545   0.150   1.245   4.080
  151DPPC   C46 7546   0.232   1.331   3.984
  151DPPC   C47 7547   0.182   1.323   3.840
  151DPPC   C48 7548   0.050   1.399   3.821
  151DPPC   C49 7549   0.012   1.414   3.673
  151DPPC   C50 7550  -0.134   1.456   3.656
  152DPPC    C1 7551   4.871   1.806   6.046
  152DPPC    C2 7552   5.083   1.819   5.924
  152DPPC    C3 7553   5.017   1.615   6.004
  152DPPC    N4 7554   4.962   1.740   5.951
  152DPPC    C5 7555   4.895   1.720   5.821
  152DPPC    C6 7556   4.785   1.619   5.790
  152DPPC    O7 7557   4.654   1.656   5.745
  152DPPC    P8 7558   4.550   1.533   5.735
  152DPPC    O9 7559   4.452   1.530   5.845
  152DPPC   O10 7560   4.621   1.414   5.683
  152DPPC   O11 7561   4.465   1.618   5.628
  152DPPC   C12 7562   4.539   1.629   5.506
  152DPPC   C13 7563   4.462   1.707   5.400
  152DPPC   O14 7564   4.467   1.644   5.271
  152DPPC   C15 7565   4.340   1.637   5.222
  152DPPC   O16 7566   4.246   1.614   5.297
  152DPPC   C17 7567   4.331   1.613   5.071
  152DPPC   C18 7568   4.366   1.741   4.995
  152DPPC   C19 7569   4.514   1.778   4.974
  152DPPC   C20 7570   4.514   1.909   4.896
  152DPPC   C21 7571   4.653   1.973   4.889
  152DPPC   C22 7572   4.694   2.005   4.745
  152DPPC   C23 7573   4.828   2.078   4.752
  152DPPC   C24 7574   4.875   2.106   4.609
  152DPPC   C25 7575   4.797   2.230   4.566
  152DPPC   C26 7576   4.827   2.255   4.418
  152DPPC   C27 7577   4.799   2.131   4.332
  152DPPC   C28 7578   4.919   2.097   4.243
  152DPPC   C29 7579   4.899   1.972   4.157
  152DPPC   C30 7580   4.988   1.960   4.033
  152DPPC   C31 7581   4.907   2.044   3.934
  152DPPC   C32 7582   4.483   1.859   5.405
  152DPPC   O33 7583   4.623   1.885   5.393
  152DPPC   C34 7584   4.665   2.009   5.355
  152DPPC   O35 7585   4.589   2.102   5.332
  152DPPC   C36 7586   4.808   2.014   5.301
  152DPPC   C37 7587   4.833   1.889   5.217
  152DPPC   C38 7588   4.971   1.891   5.149
  152DPPC   C39 7589   4.976   1.769   5.056
  152DPPC   C40 7590   5.101   1.798   4.974
  152DPPC   C41 7591   5.126   1.693   4.865
  152DPPC   C42 7592   5.013   1.710   4.762
  152DPPC   C43 7593   5.037   1.630   4.634
  152DPPC   C44 7594   4.946   1.675   4.520
  152DPPC   C45 7595   4.958   1.580   4.402
  152DPPC   C46 7596   4.887   1.635   4.277
  152DPPC   C47 7597   4.907   1.547   4.154
  152DPPC   C48 7598   4.802   1.580   4.048
  152DPPC   C49 7599   4.818   1.485   3.930
  152DPPC   C50 7600   4.699   1.487   3.835
  153DPPC    C1 7601   2.037   1.283   5.599
  153DPPC    C2 7602   2.198   1.151   5.709
  153DPPC    C3 7603   1.966   1.093   5.696
  153DPPC    N4 7604   2.081   1.144   5.620
  153DPPC    C5 7605   2.085   1.077   5.489
  153DPPC    C6 7606   2.125   0.929   5.493
  153DPPC    O7 7607   2.262   0.908   5.528
  153DPPC    P8 7608   2.269   0.760   5.592
  153DPPC    O9 7609   2.131   0.725   5.633
  153DPPC   O10 7610   2.389   0.752   5.677
  153DPPC   O11 7611   2.301   0.687   5.452
  153DPPC   C12 7612   2.428   0.727   5.400
  153DPPC   C13 7613   2.497   0.627   5.306
  153DPPC   O14 7614   2.617   0.675   5.245
  153DPPC   C15 7615   2.703   0.588   5.185
  153DPPC   O16 7616   2.700   0.469   5.215
  153DPPC   C17 7617   2.796   0.635   5.072
  153DPPC   C18 7618   2.746   0.582   4.938
  153DPPC   C19 7619   2.837   0.616   4.819
  153DPPC   C20 7620   2.775   0.562   4.690
  153DPPC   C21 7621   2.903   0.548   4.606
  153DPPC   C22 7622   2.888   0.462   4.480
  153DPPC   C23 7623   3.008   0.468   4.386
  153DPPC   C24 7624   2.969   0.386   4.263
  153DPPC   C25 7625   3.036   0.425   4.132
  153DPPC   C26 7626   2.994   0.355   4.002
  153DPPC   C27 7627   3.062   0.420   3.882
  153DPPC   C28 7628   3.024   0.358   3.747
  153DPPC   C29 7629   3.040   0.432   3.613
  153DPPC   C30 7630   2.956   0.365   3.504
  153DPPC   C31 7631   3.022   0.232   3.465
  153DPPC   C32 7632   2.387   0.595   5.205
  153DPPC   O33 7633   2.417   0.502   5.100
  153DPPC   C34 7634   2.314   0.448   5.029
  153DPPC   O35 7635   2.200   0.479   5.063
  153DPPC   C36 7636   2.339   0.379   4.895
  153DPPC   C37 7637   2.248   0.405   4.775
  153DPPC   C38 7638   2.306   0.343   4.648
  153DPPC   C39 7639   2.201   0.341   4.537
  153DPPC   C40 7640   2.212   0.457   4.438
  153DPPC   C41 7641   2.099   0.449   4.336
  153DPPC   C42 7642   2.102   0.569   4.242
  153DPPC   C43 7643   1.957   0.573   4.192
  153DPPC   C44 7644   1.854   0.605   4.300
  153DPPC   C45 7645   1.718   0.585   4.234
  153DPPC   C46 7646   1.615   0.662   4.317
  153DPPC   C47 7647   1.650   0.811   4.308
  153DPPC   C48 7648   1.562   0.906   4.389
  153DPPC   C49 7649   1.594   1.044   4.331
  153DPPC   C50 7650   1.499   1.142   4.400
  154DPPC    C1 7651   9.107   7.594   5.497
  154DPPC    C2 7652   9.195   7.807   5.463
  154DPPC    C3 7653   9.053   7.710   5.298
  154DPPC    N4 7654   9.074   7.727   5.443
  154DPPC    C5 7655   8.956   7.775   5.516
  154DPPC    C6 7656   8.900   7.917   5.504
  154DPPC    O7 7657   8.821   7.932   5.385
  154DPPC    P8 7658   8.797   8.087   5.350
  154DPPC    O9 7659   8.774   8.162   5.476
  154DPPC   O10 7660   8.708   8.110   5.233
  154DPPC   O11 7661   8.948   8.111   5.300
  154DPPC   C12 7662   8.953   8.164   5.167
  154DPPC   C13 7663   9.089   8.222   5.125
  154DPPC   O14 7664   9.084   8.301   5.005
  154DPPC   C15 7665   9.190   8.374   4.961
  154DPPC   O16 7666   9.292   8.399   5.026
  154DPPC   C17 7667   9.163   8.435   4.824
  154DPPC   C18 7668   9.251   8.552   4.780
  154DPPC   C19 7669   9.198   8.627   4.658
  154DPPC   C20 7670   9.300   8.725   4.600
  154DPPC   C21 7671   9.306   8.696   4.450
  154DPPC   C22 7672   9.163   8.733   4.408
  154DPPC   C23 7673   9.152   8.726   4.255
  154DPPC   C24 7674   9.011   8.741   4.197
  154DPPC   C25 7675   9.012   8.681   4.057
  154DPPC   C26 7676   8.875   8.713   3.996
  154DPPC   C27 7677   8.838   8.638   3.867
  154DPPC   C28 7678   8.927   8.685   3.752
  154DPPC   C29 7679   8.895   8.610   3.623
  154DPPC   C30 7680   8.912   8.462   3.657
  154DPPC   C31 7681   8.893   8.372   3.535
  154DPPC   C32 7682   9.166   8.092   5.101
  154DPPC   O33 7683   9.105   7.997   5.013
  154DPPC   C34 7684   9.168   7.887   4.965
  154DPPC   O35 7685   9.284   7.854   4.990
  154DPPC   C36 7686   9.087   7.802   4.866
  154DPPC   C37 7687   9.013   7.885   4.761
  154DPPC   C38 7688   8.944   7.798   4.656
  154DPPC   C39 7689   8.856   7.869   4.553
  154DPPC   C40 7690   8.785   7.769   4.462
  154DPPC   C41 7691   8.658   7.823   4.396
  154DPPC   C42 7692   8.605   7.758   4.268
  154DPPC   C43 7693   8.712   7.731   4.162
  154DPPC   C44 7694   8.668   7.658   4.035
  154DPPC   C45 7695   8.799   7.633   3.959
  154DPPC   C46 7696   8.800   7.493   3.898
  154DPPC   C47 7697   8.930   7.477   3.818
  154DPPC   C48 7698   8.933   7.570   3.696
  154DPPC   C49 7699   9.078   7.572   3.646
  154DPPC   C50 7700   9.106   7.656   3.521
  155DPPC    C1 7701   3.699   4.114   6.503
  155DPPC    C2 7702   3.659   3.875   6.496
  155DPPC    C3 7703   3.501   4.027   6.581
  155DPPC    N4 7704   3.600   4.008   6.475
  155DPPC    C5 7705   3.562   4.042   6.337
  155DPPC    C6 7706   3.449   3.966   6.269
  155DPPC    O7 7707   3.420   4.029   6.144
  155DPPC    P8 7708   3.284   3.978   6.075
  155DPPC    O9 7709   3.230   4.095   6.003
  155DPPC   O10 7710   3.215   3.891   6.174
  155DPPC   O11 7711   3.363   3.880   5.975
  155DPPC   C12 7712   3.456   3.942   5.886
  155DPPC   C13 7713   3.504   3.848   5.775
  155DPPC   O14 7714   3.589   3.923   5.687
  155DPPC   C15 7715   3.704   3.869   5.637
  155DPPC   O16 7716   3.779   3.812   5.715
  155DPPC   C17 7717   3.750   3.927   5.503
  155DPPC   C18 7718   3.663   3.894   5.382
  155DPPC   C19 7719   3.730   3.954   5.258
  155DPPC   C20 7720   3.661   3.916   5.127
  155DPPC   C21 7721   3.724   4.008   5.022
  155DPPC   C22 7722   3.618   4.017   4.912
  155DPPC   C23 7723   3.685   4.097   4.801
  155DPPC   C24 7724   3.610   4.098   4.668
  155DPPC   C25 7725   3.713   4.147   4.566
  155DPPC   C26 7726   3.680   4.134   4.417
  155DPPC   C27 7727   3.809   4.128   4.335
  155DPPC   C28 7728   3.783   4.104   4.186
  155DPPC   C29 7729   3.741   4.212   4.086
  155DPPC   C30 7730   3.729   4.150   3.946
  155DPPC   C31 7731   3.712   4.271   3.854
  155DPPC   C32 7732   3.383   3.788   5.704
  155DPPC   O33 7733   3.407   3.684   5.609
  155DPPC   C34 7734   3.298   3.630   5.547
  155DPPC   O35 7735   3.186   3.652   5.592
  155DPPC   C36 7736   3.329   3.527   5.438
  155DPPC   C37 7737   3.379   3.583   5.305
  155DPPC   C38 7738   3.386   3.468   5.204
  155DPPC   C39 7739   3.400   3.523   5.062
  155DPPC   C40 7740   3.409   3.408   4.961
  155DPPC   C41 7741   3.382   3.459   4.819
  155DPPC   C42 7742   3.404   3.333   4.734
  155DPPC   C43 7743   3.434   3.382   4.592
  155DPPC   C44 7744   3.454   3.277   4.483
  155DPPC   C45 7745   3.505   3.327   4.348
  155DPPC   C46 7746   3.530   3.211   4.252
  155DPPC   C47 7747   3.581   3.251   4.113
  155DPPC   C48 7748   3.626   3.123   4.043
  155DPPC   C49 7749   3.655   3.159   3.897
  155DPPC   C50 7750   3.538   3.189   3.804
  156DPPC    C1 7751   7.390   2.631   6.118
  156DPPC    C2 7752   7.169   2.622   6.215
  156DPPC    C3 7753   7.234   2.799   6.072
  156DPPC    N4 7754   7.247   2.655   6.095
  156DPPC    C5 7755   7.214   2.581   5.971
  156DPPC    C6 7756   7.233   2.430   5.968
  156DPPC    O7 7757   7.154   2.380   5.859
  156DPPC    P8 7758   7.207   2.232   5.826
  156DPPC    O9 7759   7.120   2.169   5.723
  156DPPC   O10 7760   7.253   2.169   5.952
  156DPPC   O11 7761   7.334   2.273   5.737
  156DPPC   C12 7762   7.293   2.368   5.638
  156DPPC   C13 7763   7.402   2.408   5.538
  156DPPC   O14 7764   7.357   2.494   5.432
  156DPPC   C15 7765   7.351   2.626   5.462
  156DPPC   O16 7766   7.369   2.650   5.582
  156DPPC   C17 7767   7.313   2.726   5.353
  156DPPC   C18 7768   7.410   2.740   5.235
  156DPPC   C19 7769   7.326   2.823   5.136
  156DPPC   C20 7770   7.200   2.746   5.096
  156DPPC   C21 7771   7.096   2.822   5.014
  156DPPC   C22 7772   7.001   2.718   4.954
  156DPPC   C23 7773   6.899   2.790   4.866
  156DPPC   C24 7774   6.983   2.865   4.763
  156DPPC   C25 7775   6.915   2.945   4.652
  156DPPC   C26 7776   6.818   3.050   4.705
  156DPPC   C27 7777   6.831   3.192   4.649
  156DPPC   C28 7778   6.718   3.216   4.548
  156DPPC   C29 7779   6.748   3.341   4.465
  156DPPC   C30 7780   6.637   3.363   4.362
  156DPPC   C31 7781   6.660   3.488   4.275
  156DPPC   C32 7782   7.492   2.287   5.511
  156DPPC   O33 7783   7.431   2.166   5.467
  156DPPC   C34 7784   7.517   2.063   5.447
  156DPPC   O35 7785   7.629   2.063   5.499
  156DPPC   C36 7786   7.471   1.943   5.364
  156DPPC   C37 7787   7.590   1.890   5.284
  156DPPC   C38 7788   7.552   1.768   5.199
  156DPPC   C39 7789   7.463   1.808   5.081
  156DPPC   C40 7790   7.412   1.690   4.998
  156DPPC   C41 7791   7.317   1.735   4.888
  156DPPC   C42 7792   7.182   1.779   4.946
  156DPPC   C43 7793   7.091   1.848   4.845
  156DPPC   C44 7794   6.941   1.863   4.873
  156DPPC   C45 7795   6.886   1.949   4.759
  156DPPC   C46 7796   6.734   1.934   4.761
  156DPPC   C47 7797   6.672   1.981   4.629
  156DPPC   C48 7798   6.697   1.869   4.528
  156DPPC   C49 7799   6.650   1.908   4.387
  156DPPC   C50 7800   6.687   2.049   4.342
  157DPPC    C1 7801   0.283   0.959   5.369
  157DPPC    C2 7802   0.198   1.133   5.485
  157DPPC    C3 7803   0.438   1.102   5.479
  157DPPC    N4 7804   0.313   1.099   5.401
  157DPPC    C5 7805   0.330   1.170   5.273
  157DPPC    C6 7806   0.366   1.318   5.280
  157DPPC    O7 7807   0.275   1.411   5.340
  157DPPC    P8 7808   0.362   1.521   5.419
  157DPPC    O9 7809   0.441   1.438   5.512
  157DPPC   O10 7810   0.258   1.623   5.451
  157DPPC   O11 7811   0.458   1.583   5.306
  157DPPC   C12 7812   0.390   1.692   5.245
  157DPPC   C13 7813   0.466   1.750   5.126
  157DPPC   O14 7814   0.411   1.867   5.063
  157DPPC   C15 7815   0.407   1.984   5.133
  157DPPC   O16 7816   0.439   1.995   5.251
  157DPPC   C17 7817   0.359   2.104   5.051
  157DPPC   C18 7818   0.381   2.095   4.900
  157DPPC   C19 7819   0.523   2.135   4.856
  157DPPC   C20 7820   0.528   2.121   4.704
  157DPPC   C21 7821   0.535   1.973   4.666
  157DPPC   C22 7822   0.560   1.961   4.515
  157DPPC   C23 7823   0.561   1.817   4.462
  157DPPC   C24 7824   0.561   1.828   4.309
  157DPPC   C25 7825   0.455   1.927   4.259
  157DPPC   C26 7826   0.443   1.918   4.107
  157DPPC   C27 7827   0.444   1.773   4.059
  157DPPC   C28 7828   0.443   1.779   3.906
  157DPPC   C29 7829   0.425   1.634   3.859
  157DPPC   C30 7830   0.410   1.619   3.707
  157DPPC   C31 7831   0.415   1.475   3.658
  157DPPC   C32 7832   0.474   1.632   5.029
  157DPPC   O33 7833   0.342   1.587   4.996
  157DPPC   C34 7834   0.329   1.481   4.911
  157DPPC   O35 7835   0.419   1.399   4.896
  157DPPC   C36 7836   0.188   1.459   4.856
  157DPPC   C37 7837   0.106   1.585   4.829
  157DPPC   C38 7838   0.177   1.687   4.739
  157DPPC   C39 7839   0.086   1.811   4.735
  157DPPC   C40 7840   0.139   1.924   4.647
  157DPPC   C41 7841   0.027   2.013   4.592
  157DPPC   C42 7842  -0.072   1.933   4.508
  157DPPC   C43 7843  -0.178   2.015   4.434
  157DPPC   C44 7844  -0.277   1.936   4.348
  157DPPC   C45 7845  -0.359   2.036   4.267
  157DPPC   C46 7846  -0.449   1.962   4.168
  157DPPC   C47 7847  -0.534   2.069   4.099
  157DPPC   C48 7848  -0.459   2.164   4.004
  157DPPC   C49 7849  -0.555   2.267   3.944
  157DPPC   C50 7850  -0.649   2.190   3.851
  158DPPC    C1 7851   2.882   0.780   5.488
  158DPPC    C2 7852   2.971   0.555   5.541
  158DPPC    C3 7853   3.046   0.661   5.362
  158DPPC    N4 7854   2.999   0.692   5.498
  158DPPC    C5 7855   3.095   0.750   5.594
  158DPPC    C6 7856   3.194   0.862   5.560
  158DPPC    O7 7857   3.146   0.995   5.577
  158DPPC    P8 7858   3.266   1.079   5.645
  158DPPC    O9 7859   3.328   0.990   5.746
  158DPPC   O10 7860   3.237   1.222   5.670
  158DPPC   O11 7861   3.371   1.072   5.523
  158DPPC   C12 7862   3.328   1.163   5.422
  158DPPC   C13 7863   3.439   1.200   5.323
  158DPPC   O14 7864   3.425   1.329   5.263
  158DPPC   C15 7865   3.539   1.397   5.237
  158DPPC   O16 7866   3.653   1.353   5.253
  158DPPC   C17 7867   3.525   1.482   5.111
  158DPPC   C18 7868   3.465   1.620   5.142
  158DPPC   C19 7869   3.457   1.714   5.021
  158DPPC   C20 7870   3.386   1.650   4.902
  158DPPC   C21 7871   3.392   1.739   4.778
  158DPPC   C22 7872   3.290   1.677   4.681
  158DPPC   C23 7873   3.314   1.713   4.535
  158DPPC   C24 7874   3.215   1.645   4.440
  158DPPC   C25 7875   3.243   1.684   4.295
  158DPPC   C26 7876   3.151   1.607   4.200
  158DPPC   C27 7877   3.201   1.635   4.058
  158DPPC   C28 7878   3.116   1.569   3.950
  158DPPC   C29 7879   3.160   1.603   3.807
  158DPPC   C30 7880   3.305   1.568   3.773
  158DPPC   C31 7881   3.348   1.648   3.650
  158DPPC   C32 7882   3.462   1.082   5.228
  158DPPC   O33 7883   3.346   1.029   5.162
  158DPPC   C34 7884   3.380   0.931   5.073
  158DPPC   O35 7885   3.492   0.884   5.059
  158DPPC   C36 7886   3.256   0.903   4.987
  158DPPC   C37 7887   3.196   0.767   5.022
  158DPPC   C38 7888   3.263   0.645   4.959
  158DPPC   C39 7889   3.175   0.521   4.946
  158DPPC   C40 7890   3.246   0.436   4.840
  158DPPC   C41 7891   3.269   0.515   4.711
  158DPPC   C42 7892   3.343   0.419   4.618
  158DPPC   C43 7893   3.381   0.488   4.487
  158DPPC   C44 7894   3.486   0.595   4.518
  158DPPC   C45 7895   3.570   0.638   4.398
  158DPPC   C46 7896   3.652   0.758   4.447
  158DPPC   C47 7897   3.744   0.813   4.338
  158DPPC   C48 7898   3.828   0.932   4.384
  158DPPC   C49 7899   3.928   0.977   4.277
  158DPPC   C50 7900   4.023   0.861   4.247
  159DPPC    C1 7901   3.531   8.224   4.892
  159DPPC    C2 7902   3.449   7.998   4.878
  159DPPC    C3 7903   3.610   8.053   5.037
  159DPPC    N4 7904   3.490   8.106   4.970
  159DPPC    C5 7905   3.372   8.130   5.054
  159DPPC    C6 7906   3.340   8.260   5.128
  159DPPC    O7 7907   3.277   8.361   5.048
  159DPPC    P8 7908   3.283   8.502   5.125
  159DPPC    O9 7909   3.282   8.465   5.268
  159DPPC   O10 7910   3.178   8.584   5.061
  159DPPC   O11 7911   3.429   8.540   5.067
  159DPPC   C12 7912   3.436   8.653   4.979
  159DPPC   C13 7913   3.577   8.685   4.927
  159DPPC   O14 7914   3.604   8.822   4.896
  159DPPC   C15 7915   3.617   8.923   4.987
  159DPPC   O16 7916   3.597   8.898   5.106
  159DPPC   C17 7917   3.637   9.064   4.933
  159DPPC   C18 7918   3.760   9.083   4.844
  159DPPC   C19 7919   3.781   9.227   4.799
  159DPPC   C20 7920   3.927   9.257   4.766
  159DPPC   C21 7921   3.946   9.402   4.722
  159DPPC   C22 7922   4.097   9.430   4.726
  159DPPC   C23 7923   4.176   9.413   4.595
  159DPPC   C24 7924   4.324   9.438   4.621
  159DPPC   C25 7925   4.403   9.439   4.490
  159DPPC   C26 7926   4.400   9.299   4.428
  159DPPC   C27 7927   4.450   9.306   4.284
  159DPPC   C28 7928   4.416   9.169   4.225
  159DPPC   C29 7929   4.498   9.130   4.102
  159DPPC   C30 7930   4.485   9.231   3.987
  159DPPC   C31 7931   4.351   9.245   3.915
  159DPPC   C32 7932   3.603   8.588   4.811
  159DPPC   O33 7933   3.513   8.600   4.701
  159DPPC   C34 7934   3.548   8.520   4.597
  159DPPC   O35 7935   3.644   8.443   4.598
  159DPPC   C36 7936   3.455   8.541   4.477
  159DPPC   C37 7937   3.536   8.592   4.358
  159DPPC   C38 7938   3.438   8.673   4.273
  159DPPC   C39 7939   3.511   8.728   4.150
  159DPPC   C40 7940   3.420   8.735   4.027
  159DPPC   C41 7941   3.502   8.798   3.914
  159DPPC   C42 7942   3.604   8.704   3.851
  159DPPC   C43 7943   3.664   8.784   3.735
  159DPPC   C44 7944   3.766   8.699   3.660
  159DPPC   C45 7945   3.813   8.763   3.529
  159DPPC   C46 7946   3.697   8.813   3.444
  159DPPC   C47 7947   3.762   8.924   3.361
  159DPPC   C48 7948   3.895   8.869   3.308
  159DPPC   C49 7949   3.963   8.990   3.245
  159DPPC   C50 7950   3.883   9.050   3.129
  160DPPC    C1 7951   1.026   3.457   5.771
  160DPPC    C2 7952   0.931   3.359   5.578
  160DPPC    C3 7953   1.029   3.562   5.552
  160DPPC    N4 7954   1.046   3.436   5.627
  160DPPC    C5 7955   1.170   3.361   5.600
  160DPPC    C6 7956   1.305   3.418   5.644
  160DPPC    O7 7957   1.420   3.349   5.596
  160DPPC    P8 7958   1.559   3.426   5.623
  160DPPC    O9 7959   1.662   3.326   5.662
  160DPPC   O10 7960   1.516   3.540   5.707
  160DPPC   O11 7961   1.572   3.471   5.469
  160DPPC   C12 7962   1.614   3.356   5.395
  160DPPC   C13 7963   1.635   3.372   5.244
  160DPPC   O14 7964   1.767   3.335   5.203
  160DPPC   C15 7965   1.782   3.215   5.140
  160DPPC   O16 7966   1.719   3.122   5.190
  160DPPC   C17 7967   1.912   3.203   5.060
  160DPPC   C18 7968   1.884   3.139   4.924
  160DPPC   C19 7969   2.018   3.141   4.851
  160DPPC   C20 7970   2.024   3.048   4.730
  160DPPC   C21 7971   2.033   2.900   4.767
  160DPPC   C22 7972   2.024   2.815   4.639
  160DPPC   C23 7973   1.895   2.844   4.561
  160DPPC   C24 7974   1.857   2.722   4.477
  160DPPC   C25 7975   1.726   2.742   4.402
  160DPPC   C26 7976   1.690   2.640   4.293
  160DPPC   C27 7977   1.785   2.637   4.173
  160DPPC   C28 7978   1.725   2.548   4.064
  160DPPC   C29 7979   1.826   2.562   3.950
  160DPPC   C30 7980   1.766   2.481   3.835
  160DPPC   C31 7981   1.846   2.458   3.706
  160DPPC   C32 7982   1.590   3.517   5.220
  160DPPC   O33 7983   1.570   3.559   5.085
  160DPPC   C34 7984   1.587   3.694   5.084
  160DPPC   O35 7985   1.622   3.753   5.186
  160DPPC   C36 7986   1.554   3.765   4.952
  160DPPC   C37 7987   1.543   3.658   4.844
  160DPPC   C38 7988   1.521   3.714   4.703
  160DPPC   C39 7989   1.467   3.601   4.615
  160DPPC   C40 7990   1.457   3.633   4.466
  160DPPC   C41 7991   1.372   3.528   4.394
  160DPPC   C42 7992   1.328   3.575   4.255
  160DPPC   C43 7993   1.242   3.472   4.183
  160DPPC   C44 7994   1.164   3.532   4.065
  160DPPC   C45 7995   1.214   3.487   3.927
  160DPPC   C46 7996   1.136   3.536   3.805
  160DPPC   C47 7997   1.196   3.467   3.683
  160DPPC   C48 7998   1.130   3.524   3.558
  160DPPC   C49 7999   1.180   3.466   3.425
  160DPPC   C50 8000   1.332   3.480   3.412
  161DPPC    C1 8001   4.675   5.647   5.773
  161DPPC    C2 8002   4.452   5.588   5.800
  161DPPC    C3 8003   4.546   5.783   5.922
  161DPPC    N4 8004   4.542   5.704   5.798
  161DPPC    C5 8005   4.528   5.783   5.675
  161DPPC    C6 8006   4.422   5.894   5.677
  161DPPC    O7 8007   4.429   5.963   5.552
  161DPPC    P8 8008   4.287   6.033   5.522
  161DPPC    O9 8009   4.293   6.180   5.525
  161DPPC   O10 8010   4.182   5.949   5.584
  161DPPC   O11 8011   4.304   6.005   5.365
  161DPPC   C12 8012   4.397   6.092   5.299
  161DPPC   C13 8013   4.431   6.041   5.159
  161DPPC   O14 8014   4.344   6.071   5.049
  161DPPC   C15 8015   4.313   6.199   5.017
  161DPPC   O16 8016   4.335   6.297   5.089
  161DPPC   C17 8017   4.227   6.229   4.894
  161DPPC   C18 8018   4.204   6.379   4.870
  161DPPC   C19 8019   4.132   6.396   4.736
  161DPPC   C20 8020   4.003   6.315   4.743
  161DPPC   C21 8021   3.948   6.316   4.600
  161DPPC   C22 8022   4.059   6.262   4.510
  161DPPC   C23 8023   4.012   6.198   4.380
  161DPPC   C24 8024   4.116   6.108   4.313
  161DPPC   C25 8025   4.069   6.072   4.172
  161DPPC   C26 8026   4.175   5.991   4.096
  161DPPC   C27 8027   4.106   5.936   3.971
  161DPPC   C28 8028   4.096   6.027   3.848
  161DPPC   C29 8029   4.066   5.946   3.722
  161DPPC   C30 8030   3.939   5.866   3.751
  161DPPC   C31 8031   3.815   5.952   3.724
  161DPPC   C32 8032   4.465   5.894   5.186
  161DPPC   O33 8033   4.557   5.824   5.102
  161DPPC   C34 8034   4.564   5.690   5.125
  161DPPC   O35 8035   4.499   5.638   5.216
  161DPPC   C36 8036   4.637   5.604   5.021
  161DPPC   C37 8037   4.594   5.646   4.880
  161DPPC   C38 8038   4.702   5.600   4.782
  161DPPC   C39 8039   4.673   5.669   4.649
  161DPPC   C40 8040   4.758   5.616   4.534
  161DPPC   C41 8041   4.750   5.694   4.402
  161DPPC   C42 8042   4.860   5.636   4.312
  161DPPC   C43 8043   4.858   5.697   4.172
  161DPPC   C44 8044   4.973   5.643   4.086
  161DPPC   C45 8045   5.101   5.720   4.116
  161DPPC   C46 8046   5.205   5.676   4.014
  161DPPC   C47 8047   5.340   5.747   4.032
  161DPPC   C48 8048   5.441   5.681   3.939
  161DPPC   C49 8049   5.583   5.731   3.969
  161DPPC   C50 8050   5.579   5.883   3.966
  162DPPC    C1 8051   6.206   6.092   5.196
  162DPPC    C2 8052   6.439   6.054   5.225
  162DPPC    C3 8053   6.318   6.150   5.406
  162DPPC    N4 8054   6.310   6.056   5.294
  162DPPC    C5 8055   6.299   5.922   5.354
  162DPPC    C6 8056   6.248   5.808   5.266
  162DPPC    O7 8057   6.324   5.777   5.149
  162DPPC    P8 8058   6.252   5.659   5.065
  162DPPC    O9 8059   6.138   5.747   5.030
  162DPPC   O10 8060   6.250   5.545   5.159
  162DPPC   O11 8061   6.371   5.654   4.956
  162DPPC   C12 8062   6.344   5.766   4.871
  162DPPC   C13 8063   6.456   5.810   4.777
  162DPPC   O14 8064   6.433   5.763   4.644
  162DPPC   C15 8065   6.343   5.836   4.572
  162DPPC   O16 8066   6.262   5.910   4.626
  162DPPC   C17 8067   6.356   5.838   4.420
  162DPPC   C18 8068   6.474   5.751   4.375
  162DPPC   C19 8069   6.503   5.772   4.226
  162DPPC   C20 8070   6.384   5.747   4.133
  162DPPC   C21 8071   6.423   5.757   3.986
  162DPPC   C22 8072   6.450   5.903   3.948
  162DPPC   C23 8073   6.495   5.904   3.802
  162DPPC   C24 8074   6.500   6.045   3.743
  162DPPC   C25 8075   6.583   6.055   3.615
  162DPPC   C26 8076   6.718   5.985   3.637
  162DPPC   C27 8077   6.787   6.009   3.502
  162DPPC   C28 8078   6.714   5.934   3.391
  162DPPC   C29 8079   6.686   5.784   3.408
  162DPPC   C30 8080   6.547   5.756   3.351
  162DPPC   C31 8081   6.542   5.761   3.198
  162DPPC   C32 8082   6.583   5.756   4.843
  162DPPC   O33 8083   6.703   5.810   4.787
  162DPPC   C34 8084   6.819   5.740   4.807
  162DPPC   O35 8085   6.813   5.646   4.886
  162DPPC   C36 8086   6.942   5.794   4.735
  162DPPC   C37 8087   6.982   5.710   4.613
  162DPPC   C38 8088   6.896   5.740   4.490
  162DPPC   C39 8089   6.961   5.678   4.366
  162DPPC   C40 8090   6.880   5.693   4.237
  162DPPC   C41 8091   6.960   5.642   4.117
  162DPPC   C42 8092   6.871   5.647   3.992
  162DPPC   C43 8093   6.941   5.594   3.867
  162DPPC   C44 8094   6.875   5.610   3.730
  162DPPC   C45 8095   6.964   5.563   3.614
  162DPPC   C46 8096   7.075   5.662   3.576
  162DPPC   C47 8097   7.159   5.604   3.463
  162DPPC   C48 8098   7.275   5.699   3.434
  162DPPC   C49 8099   7.227   5.790   3.320
  162DPPC   C50 8100   7.342   5.889   3.300
  163DPPC    C1 8101   6.183   5.054   1.353
  163DPPC    C2 8102   6.166   5.124   1.581
  163DPPC    C3 8103   6.012   4.966   1.480
  163DPPC    N4 8104   6.152   5.009   1.490
  163DPPC    C5 8105   6.247   4.906   1.532
  163DPPC    C6 8106   6.229   4.821   1.658
  163DPPC    O7 8107   6.343   4.741   1.691
  163DPPC    P8 8108   6.294   4.624   1.791
  163DPPC    O9 8109   6.407   4.540   1.837
  163DPPC   O10 8110   6.176   4.554   1.736
  163DPPC   O11 8111   6.230   4.714   1.908
  163DPPC   C12 8112   6.330   4.740   2.007
  163DPPC   C13 8113   6.282   4.857   2.092
  163DPPC   O14 8114   6.388   4.912   2.172
  163DPPC   C15 8115   6.487   4.983   2.112
  163DPPC   O16 8116   6.498   4.981   1.990
  163DPPC   C17 8117   6.605   5.032   2.197
  163DPPC   C18 8118   6.566   5.164   2.263
  163DPPC   C19 8119   6.685   5.213   2.346
  163DPPC   C20 8120   6.655   5.343   2.422
  163DPPC   C21 8121   6.760   5.348   2.533
  163DPPC   C22 8122   6.756   5.487   2.597
  163DPPC   C23 8123   6.619   5.537   2.642
  163DPPC   C24 8124   6.646   5.668   2.715
  163DPPC   C25 8125   6.694   5.778   2.620
  163DPPC   C26 8126   6.711   5.907   2.702
  163DPPC   C27 8127   6.802   5.878   2.821
  163DPPC   C28 8128   6.805   5.997   2.917
  163DPPC   C29 8129   6.914   5.989   3.024
  163DPPC   C30 8130   6.954   6.126   3.080
  163DPPC   C31 8131   7.059   6.126   3.191
  163DPPC   C32 8132   6.163   4.802   2.170
  163DPPC   O33 8133   6.088   4.915   2.216
  163DPPC   C34 8134   5.978   4.873   2.284
  163DPPC   O35 8135   5.956   4.752   2.283
  163DPPC   C36 8136   5.896   4.971   2.368
  163DPPC   C37 8137   5.919   4.971   2.519
  163DPPC   C38 8138   5.827   5.075   2.582
  163DPPC   C39 8139   5.853   5.084   2.733
  163DPPC   C40 8140   5.745   5.171   2.797
  163DPPC   C41 8141   5.744   5.149   2.948
  163DPPC   C42 8142   5.644   5.248   3.008
  163DPPC   C43 8143   5.642   5.255   3.160
  163DPPC   C44 8144   5.597   5.390   3.219
  163DPPC   C45 8145   5.632   5.396   3.367
  163DPPC   C46 8146   5.606   5.541   3.408
  163DPPC   C47 8147   5.631   5.569   3.556
  163DPPC   C48 8148   5.637   5.720   3.578
  163DPPC   C49 8149   5.734   5.773   3.472
  163DPPC   C50 8150   5.750   5.923   3.447
  164DPPC    C1 8151   2.594   2.173   2.339
  164DPPC    C2 8152   2.787   2.169   2.481
  164DPPC    C3 8153   2.699   1.966   2.408
  164DPPC    N4 8154   2.722   2.105   2.366
  164DPPC    C5 8155   2.806   2.099   2.246
  164DPPC    C6 8156   2.846   2.213   2.152
  164DPPC    O7 8157   2.936   2.299   2.221
  164DPPC    P8 8158   2.967   2.417   2.115
  164DPPC    O9 8159   2.831   2.451   2.068
  164DPPC   O10 8160   3.071   2.348   2.036
  164DPPC   O11 8161   3.037   2.520   2.217
  164DPPC   C12 8162   2.950   2.540   2.329
  164DPPC   C13 8163   3.033   2.607   2.439
  164DPPC   O14 8164   2.968   2.632   2.564
  164DPPC   C15 8165   2.973   2.526   2.649
  164DPPC   O16 8166   3.011   2.412   2.621
  164DPPC   C17 8167   2.899   2.533   2.783
  164DPPC   C18 8168   2.956   2.443   2.893
  164DPPC   C19 8169   2.881   2.451   3.026
  164DPPC   C20 8170   2.759   2.359   3.024
  164DPPC   C21 8171   2.661   2.397   3.135
  164DPPC   C22 8172   2.615   2.543   3.133
  164DPPC   C23 8173   2.474   2.538   3.190
  164DPPC   C24 8174   2.508   2.529   3.338
  164DPPC   C25 8175   2.382   2.542   3.425
  164DPPC   C26 8176   2.402   2.533   3.577
  164DPPC   C27 8177   2.272   2.537   3.657
  164DPPC   C28 8178   2.281   2.516   3.808
  164DPPC   C29 8179   2.371   2.620   3.874
  164DPPC   C30 8180   2.303   2.756   3.862
  164DPPC   C31 8181   2.389   2.871   3.915
  164DPPC   C32 8182   3.097   2.727   2.369
  164DPPC   O33 8183   3.005   2.832   2.337
  164DPPC   C34 8184   3.054   2.935   2.263
  164DPPC   O35 8185   3.172   2.936   2.228
  164DPPC   C36 8186   2.971   3.063   2.256
  164DPPC   C37 8187   2.974   3.127   2.395
  164DPPC   C38 8188   2.839   3.197   2.409
  164DPPC   C39 8189   2.823   3.286   2.533
  164DPPC   C40 8190   2.803   3.181   2.643
  164DPPC   C41 8191   2.778   3.255   2.774
  164DPPC   C42 8192   2.800   3.158   2.890
  164DPPC   C43 8193   2.775   3.222   3.026
  164DPPC   C44 8194   2.797   3.115   3.134
  164DPPC   C45 8195   2.793   3.175   3.275
  164DPPC   C46 8196   2.839   3.065   3.370
  164DPPC   C47 8197   2.870   3.130   3.505
  164DPPC   C48 8198   2.901   3.030   3.616
  164DPPC   C49 8199   2.793   2.939   3.674
  164DPPC   C50 8200   2.846   2.903   3.813
  165DPPC    C1 8201   0.161   3.305   1.349
  165DPPC    C2 8202   0.342   3.427   1.474
  165DPPC    C3 8203   0.128   3.514   1.451
  165DPPC    N4 8204   0.201   3.387   1.464
  165DPPC    C5 8205   0.152   3.312   1.581
  165DPPC    C6 8206   0.215   3.175   1.607
  165DPPC    O7 8207   0.136   3.065   1.560
  165DPPC    P8 8208   0.220   2.930   1.536
  165DPPC    O9 8209   0.324   2.986   1.446
  165DPPC   O10 8210   0.117   2.828   1.504
  165DPPC   O11 8211   0.272   2.915   1.687
  165DPPC   C12 8212   0.160   2.872   1.766
  165DPPC   C13 8213   0.163   2.924   1.910
  165DPPC   O14 8214   0.159   3.066   1.931
  165DPPC   C15 8215   0.038   3.121   1.961
  165DPPC   O16 8216  -0.069   3.066   1.936
  165DPPC   C17 8217   0.045   3.271   1.989
  165DPPC   C18 8218   0.116   3.308   2.119
  165DPPC   C19 8219   0.034   3.277   2.245
  165DPPC   C20 8220   0.092   3.325   2.378
  165DPPC   C21 8221  -0.009   3.316   2.492
  165DPPC   C22 8222   0.045   3.321   2.635
  165DPPC   C23 8223  -0.071   3.303   2.733
  165DPPC   C24 8224   0.006   3.304   2.865
  165DPPC   C25 8225  -0.083   3.242   2.972
  165DPPC   C26 8226  -0.033   3.310   3.100
  165DPPC   C27 8227  -0.095   3.230   3.215
  165DPPC   C28 8228  -0.248   3.221   3.205
  165DPPC   C29 8229  -0.311   3.165   3.333
  165DPPC   C30 8230  -0.375   3.273   3.420
  165DPPC   C31 8231  -0.433   3.202   3.543
  165DPPC   C32 8232   0.292   2.865   1.969
  165DPPC   O33 8233   0.288   2.812   2.102
  165DPPC   C34 8234   0.244   2.685   2.118
  165DPPC   O35 8235   0.262   2.605   2.026
  165DPPC   C36 8236   0.253   2.640   2.264
  165DPPC   C37 8237   0.200   2.499   2.289
  165DPPC   C38 8238   0.241   2.476   2.435
  165DPPC   C39 8239   0.113   2.437   2.510
  165DPPC   C40 8240   0.131   2.450   2.661
  165DPPC   C41 8241   0.008   2.409   2.742
  165DPPC   C42 8242   0.025   2.440   2.891
  165DPPC   C43 8243  -0.093   2.410   2.983
  165DPPC   C44 8244  -0.081   2.504   3.103
  165DPPC   C45 8245  -0.194   2.466   3.199
  165DPPC   C46 8246  -0.185   2.555   3.323
  165DPPC   C47 8247  -0.291   2.503   3.419
  165DPPC   C48 8248  -0.269   2.361   3.472
  165DPPC   C49 8249  -0.375   2.300   3.564
  165DPPC   C50 8250  -0.320   2.172   3.627
  166DPPC    C1 8251   2.324   3.359   1.353
  166DPPC    C2 8252   2.547   3.385   1.452
  166DPPC    C3 8253   2.369   3.287   1.575
  166DPPC    N4 8254   2.426   3.301   1.440
  166DPPC    C5 8255   2.482   3.173   1.392
  166DPPC    C6 8256   2.422   3.037   1.426
  166DPPC    O7 8257   2.294   3.031   1.362
  166DPPC    P8 8258   2.214   2.897   1.400
  166DPPC    O9 8259   2.306   2.782   1.382
  166DPPC   O10 8260   2.082   2.899   1.334
  166DPPC   O11 8261   2.184   2.940   1.553
  166DPPC   C12 8262   2.090   2.843   1.600
  166DPPC   C13 8263   2.030   2.875   1.737
  166DPPC   O14 8264   1.913   2.799   1.771
  166DPPC   C15 8265   1.922   2.669   1.808
  166DPPC   O16 8266   2.028   2.607   1.820
  166DPPC   C17 8267   1.794   2.618   1.875
  166DPPC   C18 8268   1.824   2.581   2.020
  166DPPC   C19 8269   1.707   2.507   2.084
  166DPPC   C20 8270   1.721   2.526   2.235
  166DPPC   C21 8271   1.650   2.423   2.323
  166DPPC   C22 8272   1.679   2.448   2.471
  166DPPC   C23 8273   1.653   2.591   2.521
  166DPPC   C24 8274   1.651   2.592   2.674
  166DPPC   C25 8275   1.697   2.731   2.718
  166DPPC   C26 8276   1.717   2.736   2.870
  166DPPC   C27 8277   1.586   2.691   2.935
  166DPPC   C28 8278   1.608   2.683   3.086
  166DPPC   C29 8279   1.492   2.598   3.136
  166DPPC   C30 8280   1.475   2.600   3.288
  166DPPC   C31 8281   1.363   2.499   3.316
  166DPPC   C32 8282   2.018   3.028   1.733
  166DPPC   O33 8283   1.984   3.097   1.853
  166DPPC   C34 8284   1.992   3.233   1.844
  166DPPC   O35 8285   2.062   3.292   1.762
  166DPPC   C36 8286   1.915   3.317   1.946
  166DPPC   C37 8287   2.008   3.351   2.063
  166DPPC   C38 8288   1.948   3.441   2.170
  166DPPC   C39 8289   2.056   3.447   2.279
  166DPPC   C40 8290   1.995   3.545   2.380
  166DPPC   C41 8291   2.079   3.543   2.508
  166DPPC   C42 8292   1.978   3.527   2.622
  166DPPC   C43 8293   2.035   3.532   2.764
  166DPPC   C44 8294   1.927   3.485   2.862
  166DPPC   C45 8295   1.895   3.595   2.964
  166DPPC   C46 8296   1.869   3.732   2.902
  166DPPC   C47 8297   1.849   3.833   3.015
  166DPPC   C48 8298   1.970   3.855   3.107
  166DPPC   C49 8299   1.937   3.955   3.219
  166DPPC   C50 8300   2.055   3.966   3.315
  167DPPC    C1 8301   2.293   2.255   1.488
  167DPPC    C2 8302   2.469   2.113   1.566
  167DPPC    C3 8303   2.445   2.337   1.640
  167DPPC    N4 8304   2.370   2.215   1.606
  167DPPC    C5 8305   2.287   2.172   1.720
  167DPPC    C6 8306   2.185   2.059   1.707
  167DPPC    O7 8307   2.254   1.936   1.728
  167DPPC    P8 8308   2.147   1.822   1.690
  167DPPC    O9 8309   2.232   1.704   1.664
  167DPPC   O10 8310   2.067   1.888   1.584
  167DPPC   O11 8311   2.085   1.851   1.836
  167DPPC   C12 8312   2.157   1.801   1.949
  167DPPC   C13 8313   2.085   1.836   2.079
  167DPPC   O14 8314   1.970   1.756   2.108
  167DPPC   C15 8315   1.990   1.628   2.150
  167DPPC   O16 8316   2.085   1.562   2.110
  167DPPC   C17 8317   1.887   1.580   2.252
  167DPPC   C18 8318   1.941   1.597   2.394
  167DPPC   C19 8319   1.858   1.542   2.511
  167DPPC   C20 8320   1.909   1.583   2.649
  167DPPC   C21 8321   2.057   1.550   2.668
  167DPPC   C22 8322   2.114   1.636   2.781
  167DPPC   C23 8323   2.252   1.568   2.778
  167DPPC   C24 8324   2.331   1.665   2.865
  167DPPC   C25 8325   2.447   1.597   2.938
  167DPPC   C26 8326   2.388   1.513   3.051
  167DPPC   C27 8327   2.487   1.437   3.140
  167DPPC   C28 8328   2.443   1.302   3.197
  167DPPC   C29 8329   2.563   1.248   3.275
  167DPPC   C30 8330   2.523   1.127   3.359
  167DPPC   C31 8331   2.404   1.170   3.444
  167DPPC   C32 8332   2.072   1.988   2.064
  167DPPC   O33 8333   2.074   2.059   2.188
  167DPPC   C34 8334   2.007   2.178   2.190
  167DPPC   O35 8335   1.932   2.219   2.102
  167DPPC   C36 8336   2.006   2.255   2.322
  167DPPC   C37 8337   2.120   2.356   2.332
  167DPPC   C38 8338   2.086   2.456   2.442
  167DPPC   C39 8339   2.070   2.387   2.577
  167DPPC   C40 8340   2.068   2.502   2.678
  167DPPC   C41 8341   2.072   2.466   2.827
  167DPPC   C42 8342   2.068   2.593   2.913
  167DPPC   C43 8343   2.027   2.559   3.057
  167DPPC   C44 8344   2.004   2.681   3.147
  167DPPC   C45 8345   1.974   2.645   3.293
  167DPPC   C46 8346   1.973   2.776   3.371
  167DPPC   C47 8347   1.906   2.764   3.508
  167DPPC   C48 8348   1.942   2.891   3.586
  167DPPC   C49 8349   1.869   2.884   3.720
  167DPPC   C50 8350   1.928   2.978   3.824
  168DPPC    C1 8351   2.802   7.968   1.446
  168DPPC    C2 8352   2.581   7.929   1.368
  168DPPC    C3 8353   2.643   7.874   1.591
  168DPPC    N4 8354   2.660   7.973   1.484
  168DPPC    C5 8355   2.627   8.109   1.526
  168DPPC    C6 8356   2.692   8.183   1.643
  168DPPC    O7 8357   2.661   8.323   1.650
  168DPPC    P8 8358   2.749   8.392   1.765
  168DPPC    O9 8359   2.732   8.539   1.767
  168DPPC   O10 8360   2.878   8.324   1.739
  168DPPC   O11 8361   2.706   8.311   1.898
  168DPPC   C12 8362   2.584   8.364   1.952
  168DPPC   C13 8363   2.553   8.317   2.094
  168DPPC   O14 8364   2.426   8.368   2.138
  168DPPC   C15 8365   2.317   8.289   2.124
  168DPPC   O16 8366   2.303   8.228   2.018
  168DPPC   C17 8367   2.198   8.305   2.218
  168DPPC   C18 8368   2.184   8.452   2.258
  168DPPC   C19 8369   2.113   8.462   2.394
  168DPPC   C20 8370   2.090   8.611   2.419
  168DPPC   C21 8371   2.029   8.651   2.554
  168DPPC   C22 8372   1.947   8.779   2.535
  168DPPC   C23 8373   1.894   8.832   2.668
  168DPPC   C24 8374   1.777   8.752   2.726
  168DPPC   C25 8375   1.727   8.818   2.854
  168DPPC   C26 8376   1.649   8.721   2.943
  168DPPC   C27 8377   1.733   8.595   2.966
  168DPPC   C28 8378   1.683   8.481   3.056
  168DPPC   C29 8379   1.533   8.455   3.053
  168DPPC   C30 8380   1.511   8.348   3.160
  168DPPC   C31 8381   1.361   8.321   3.168
  168DPPC   C32 8382   2.674   8.365   2.173
  168DPPC   O33 8383   2.700   8.506   2.163
  168DPPC   C34 8384   2.829   8.548   2.172
  168DPPC   O35 8385   2.918   8.472   2.208
  168DPPC   C36 8386   2.841   8.699   2.154
  168DPPC   C37 8387   2.803   8.780   2.278
  168DPPC   C38 8388   2.807   8.923   2.224
  168DPPC   C39 8389   2.778   9.027   2.332
  168DPPC   C40 8390   2.862   9.004   2.457
  168DPPC   C41 8391   2.831   9.109   2.565
  168DPPC   C42 8392   2.915   9.081   2.689
  168DPPC   C43 8393   2.912   9.200   2.785
  168DPPC   C44 8394   2.998   9.179   2.910
  168DPPC   C45 8395   3.146   9.150   2.888
  168DPPC   C46 8396   3.220   9.156   3.022
  168DPPC   C47 8397   3.365   9.108   3.015
  168DPPC   C48 8398   3.431   9.208   2.920
  168DPPC   C49 8399   3.581   9.178   2.917
  168DPPC   C50 8400   3.625   9.075   2.813
  169DPPC    C1 8401   0.143   2.495   1.728
  169DPPC    C2 8402   0.361   2.437   1.712
  169DPPC    C3 8403   0.203   2.283   1.613
  169DPPC    N4 8404   0.235   2.425   1.637
  169DPPC    C5 8405   0.237   2.507   1.515
  169DPPC    C6 8406   0.331   2.482   1.397
  169DPPC    O7 8407   0.463   2.536   1.410
  169DPPC    P8 8408   0.484   2.682   1.345
  169DPPC    O9 8409   0.371   2.726   1.261
  169DPPC   O10 8410   0.618   2.661   1.285
  169DPPC   O11 8411   0.504   2.743   1.493
  169DPPC   C12 8412   0.632   2.714   1.551
  169DPPC   C13 8413   0.654   2.787   1.684
  169DPPC   O14 8414   0.602   2.726   1.802
  169DPPC   C15 8415   0.689   2.667   1.889
  169DPPC   O16 8416   0.792   2.615   1.847
  169DPPC   C17 8417   0.633   2.620   2.023
  169DPPC   C18 8418   0.700   2.492   2.073
  169DPPC   C19 8419   0.696   2.478   2.226
  169DPPC   C20 8420   0.769   2.353   2.273
  169DPPC   C21 8421   0.681   2.228   2.260
  169DPPC   C22 8422   0.566   2.247   2.359
  169DPPC   C23 8423   0.624   2.237   2.501
  169DPPC   C24 8424   0.514   2.264   2.604
  169DPPC   C25 8425   0.567   2.257   2.747
  169DPPC   C26 8426   0.460   2.272   2.855
  169DPPC   C27 8427   0.402   2.131   2.864
  169DPPC   C28 8428   0.289   2.130   2.966
  169DPPC   C29 8429   0.334   2.138   3.112
  169DPPC   C30 8430   0.213   2.138   3.205
  169DPPC   C31 8431   0.132   2.017   3.156
  169DPPC   C32 8432   0.616   2.933   1.655
  169DPPC   O33 8433   0.639   3.022   1.764
  169DPPC   C34 8434   0.596   3.151   1.753
  169DPPC   O35 8435   0.562   3.204   1.647
  169DPPC   C36 8436   0.617   3.231   1.881
  169DPPC   C37 8437   0.539   3.182   2.003
  169DPPC   C38 8438   0.540   3.301   2.099
  169DPPC   C39 8439   0.466   3.259   2.226
  169DPPC   C40 8440   0.445   3.378   2.319
  169DPPC   C41 8441   0.575   3.457   2.336
  169DPPC   C42 8442   0.656   3.406   2.455
  169DPPC   C43 8443   0.803   3.445   2.446
  169DPPC   C44 8444   0.884   3.417   2.573
  169DPPC   C45 8445   1.034   3.415   2.544
  169DPPC   C46 8446   1.083   3.553   2.500
  169DPPC   C47 8447   1.233   3.579   2.507
  169DPPC   C48 8448   1.272   3.716   2.453
  169DPPC   C49 8449   1.237   3.707   2.304
  169DPPC   C50 8450   1.217   3.836   2.224
  170DPPC    C1 8451   6.889   8.361   1.544
  170DPPC    C2 8452   7.065   8.248   1.478
  170DPPC    C3 8453   7.080   8.408   1.665
  170DPPC    N4 8454   7.006   8.296   1.604
  170DPPC    C5 8455   6.956   8.185   1.686
  170DPPC    C6 8456   7.054   8.095   1.762
  170DPPC    O7 8457   6.980   7.985   1.815
  170DPPC    P8 8458   7.067   7.850   1.804
  170DPPC    O9 8459   7.157   7.866   1.688
  170DPPC   O10 8460   6.977   7.733   1.815
  170DPPC   O11 8461   7.169   7.860   1.928
  170DPPC   C12 8462   7.082   7.829   2.037
  170DPPC   C13 8463   7.155   7.821   2.171
  170DPPC   O14 8464   7.084   7.745   2.271
  170DPPC   C15 8465   7.091   7.609   2.271
  170DPPC   O16 8466   7.127   7.547   2.171
  170DPPC   C17 8467   7.016   7.535   2.382
  170DPPC   C18 8468   6.983   7.613   2.509
  170DPPC   C19 8469   6.933   7.523   2.622
  170DPPC   C20 8470   6.874   7.606   2.737
  170DPPC   C21 8471   6.803   7.521   2.843
  170DPPC   C22 8472   6.754   7.602   2.963
  170DPPC   C23 8473   6.867   7.690   3.017
  170DPPC   C24 8474   6.810   7.783   3.124
  170DPPC   C25 8475   6.688   7.862   3.075
  170DPPC   C26 8476   6.624   7.944   3.188
  170DPPC   C27 8477   6.581   7.833   3.283
  170DPPC   C28 8478   6.505   7.890   3.403
  170DPPC   C29 8479   6.441   7.773   3.479
  170DPPC   C30 8480   6.549   7.675   3.523
  170DPPC   C31 8481   6.469   7.551   3.565
  170DPPC   C32 8482   7.194   7.961   2.218
  170DPPC   O33 8483   7.280   7.968   2.332
  170DPPC   C34 8484   7.306   8.090   2.385
  170DPPC   O35 8485   7.234   8.187   2.357
  170DPPC   C36 8486   7.426   8.104   2.478
  170DPPC   C37 8487   7.542   8.146   2.387
  170DPPC   C38 8488   7.674   8.148   2.463
  170DPPC   C39 8489   7.669   8.255   2.573
  170DPPC   C40 8490   7.803   8.276   2.644
  170DPPC   C41 8491   7.798   8.402   2.729
  170DPPC   C42 8492   7.945   8.429   2.761
  170DPPC   C43 8493   7.973   8.543   2.860
  170DPPC   C44 8494   8.118   8.530   2.906
  170DPPC   C45 8495   8.136   8.625   3.024
  170DPPC   C46 8496   8.269   8.615   3.099
  170DPPC   C47 8497   8.265   8.683   3.236
  170DPPC   C48 8498   8.388   8.630   3.310
  170DPPC   C49 8499   8.377   8.686   3.452
  170DPPC   C50 8500   8.494   8.659   3.547
  171DPPC    C1 8501   5.826   7.355   1.448
  171DPPC    C2 8502   5.762   7.150   1.377
  171DPPC    C3 8503   5.985   7.180   1.483
  171DPPC    N4 8504   5.842   7.213   1.484
  171DPPC    C5 8505   5.790   7.170   1.614
  171DPPC    C6 8506   5.670   7.247   1.669
  171DPPC    O7 8507   5.624   7.179   1.786
  171DPPC    P8 8508   5.497   7.229   1.871
  171DPPC    O9 8509   5.470   7.123   1.970
  171DPPC   O10 8510   5.395   7.248   1.765
  171DPPC   O11 8511   5.569   7.367   1.911
  171DPPC   C12 8512   5.634   7.343   2.036
  171DPPC   C13 8513   5.747   7.442   2.062
  171DPPC   O14 8514   5.841   7.402   2.163
  171DPPC   C15 8515   5.960   7.460   2.193
  171DPPC   O16 8516   6.014   7.545   2.123
  171DPPC   C17 8517   6.053   7.384   2.288
  171DPPC   C18 8518   6.181   7.464   2.311
  171DPPC   C19 8519   6.288   7.406   2.403
  171DPPC   C20 8520   6.247   7.452   2.543
  171DPPC   C21 8521   6.348   7.423   2.654
  171DPPC   C22 8522   6.304   7.501   2.778
  171DPPC   C23 8523   6.377   7.447   2.901
  171DPPC   C24 8524   6.354   7.299   2.930
  171DPPC   C25 8525   6.390   7.258   3.073
  171DPPC   C26 8526   6.280   7.284   3.176
  171DPPC   C27 8527   6.345   7.251   3.311
  171DPPC   C28 8528   6.242   7.253   3.424
  171DPPC   C29 8529   6.279   7.143   3.524
  171DPPC   C30 8530   6.153   7.091   3.592
  171DPPC   C31 8531   6.176   6.984   3.700
  171DPPC   C32 8532   5.690   7.578   2.103
  171DPPC   O33 8533   5.597   7.570   2.211
  171DPPC   C34 8534   5.544   7.688   2.253
  171DPPC   O35 8535   5.576   7.797   2.207
  171DPPC   C36 8536   5.459   7.693   2.380
  171DPPC   C37 8537   5.517   7.784   2.489
  171DPPC   C38 8538   5.426   7.786   2.612
  171DPPC   C39 8539   5.488   7.874   2.720
  171DPPC   C40 8540   5.504   8.017   2.670
  171DPPC   C41 8541   5.587   8.110   2.759
  171DPPC   C42 8542   5.572   8.252   2.706
  171DPPC   C43 8543   5.549   8.351   2.820
  171DPPC   C44 8544   5.672   8.354   2.912
  171DPPC   C45 8545   5.625   8.393   3.052
  171DPPC   C46 8546   5.509   8.301   3.093
  171DPPC   C47 8547   5.443   8.348   3.222
  171DPPC   C48 8548   5.301   8.294   3.242
  171DPPC   C49 8549   5.237   8.380   3.351
  171DPPC   C50 8550   5.087   8.362   3.330
  172DPPC    C1 8551   3.036   4.968   1.732
  172DPPC    C2 8552   3.023   4.961   1.985
  172DPPC    C3 8553   3.136   4.813   1.862
  172DPPC    N4 8554   3.104   4.956   1.862
  172DPPC    C5 8555   3.233   5.023   1.882
  172DPPC    C6 8556   3.230   5.175   1.873
  172DPPC    O7 8557   3.354   5.246   1.877
  172DPPC    P8 8558   3.325   5.394   1.820
  172DPPC    O9 8559   3.183   5.410   1.783
  172DPPC   O10 8560   3.434   5.464   1.748
  172DPPC   O11 8561   3.313   5.471   1.960
  172DPPC   C12 8562   3.447   5.444   2.003
  172DPPC   C13 8563   3.480   5.476   2.149
  172DPPC   O14 8564   3.456   5.365   2.236
  172DPPC   C15 8565   3.566   5.342   2.313
  172DPPC   O16 8566   3.675   5.336   2.256
  172DPPC   C17 8567   3.545   5.244   2.429
  172DPPC   C18 8568   3.500   5.313   2.557
  172DPPC   C19 8569   3.596   5.421   2.608
  172DPPC   C20 8570   3.555   5.472   2.746
  172DPPC   C21 8571   3.642   5.589   2.790
  172DPPC   C22 8572   3.598   5.651   2.923
  172DPPC   C23 8573   3.677   5.778   2.953
  172DPPC   C24 8574   3.599   5.861   3.055
  172DPPC   C25 8575   3.689   5.983   3.078
  172DPPC   C26 8576   3.634   6.069   3.191
  172DPPC   C27 8577   3.689   6.211   3.176
  172DPPC   C28 8578   3.642   6.293   3.297
  172DPPC   C29 8579   3.656   6.213   3.427
  172DPPC   C30 8580   3.672   6.292   3.557
  172DPPC   C31 8581   3.549   6.384   3.565
  172DPPC   C32 8582   3.404   5.606   2.179
  172DPPC   O33 8583   3.406   5.643   2.317
  172DPPC   C34 8584   3.327   5.741   2.368
  172DPPC   O35 8585   3.285   5.826   2.290
  172DPPC   C36 8586   3.325   5.773   2.518
  172DPPC   C37 8587   3.263   5.665   2.607
  172DPPC   C38 8588   3.244   5.715   2.751
  172DPPC   C39 8589   3.157   5.629   2.842
  172DPPC   C40 8590   3.159   5.682   2.985
  172DPPC   C41 8591   3.085   5.590   3.082
  172DPPC   C42 8592   3.105   5.628   3.229
  172DPPC   C43 8593   3.250   5.589   3.259
  172DPPC   C44 8594   3.298   5.656   3.388
  172DPPC   C45 8595   3.265   5.576   3.514
  172DPPC   C46 8596   3.311   5.652   3.639
  172DPPC   C47 8597   3.460   5.684   3.626
  172DPPC   C48 8598   3.515   5.761   3.746
  172DPPC   C49 8599   3.525   5.672   3.870
  172DPPC   C50 8600   3.616   5.549   3.854
  173DPPC    C1 8601   6.108   1.966   2.299
  173DPPC    C2 8602   5.975   1.981   2.108
  173DPPC    C3 8603   5.983   2.173   2.259
  173DPPC    N4 8604   6.059   2.062   2.199
  173DPPC    C5 8605   6.184   2.113   2.142
  173DPPC    C6 8606   6.187   2.219   2.031
  173DPPC    O7 8607   6.309   2.273   1.980
  173DPPC    P8 8608   6.300   2.418   1.911
  173DPPC    O9 8609   6.178   2.394   1.830
  173DPPC   O10 8610   6.426   2.474   1.858
  173DPPC   O11 8611   6.257   2.497   2.045
  173DPPC   C12 8612   6.376   2.556   2.098
  173DPPC   C13 8613   6.355   2.631   2.230
  173DPPC   O14 8614   6.476   2.677   2.292
  173DPPC   C15 8615   6.456   2.790   2.365
  173DPPC   O16 8616   6.369   2.865   2.322
  173DPPC   C17 8617   6.582   2.851   2.428
  173DPPC   C18 8618   6.553   2.937   2.551
  173DPPC   C19 8619   6.643   2.906   2.670
  173DPPC   C20 8620   6.628   2.768   2.734
  173DPPC   C21 8621   6.723   2.756   2.854
  173DPPC   C22 8622   6.694   2.625   2.927
  173DPPC   C23 8623   6.781   2.588   3.048
  173DPPC   C24 8624   6.726   2.681   3.156
  173DPPC   C25 8625   6.797   2.658   3.290
  173DPPC   C26 8626   6.706   2.735   3.386
  173DPPC   C27 8627   6.775   2.755   3.521
  173DPPC   C28 8628   6.804   2.627   3.600
  173DPPC   C29 8629   6.855   2.674   3.737
  173DPPC   C30 8630   6.745   2.758   3.801
  173DPPC   C31 8631   6.781   2.814   3.939
  173DPPC   C32 8632   6.300   2.512   2.309
  173DPPC   O33 8633   6.263   2.526   2.447
  173DPPC   C34 8634   6.241   2.415   2.522
  173DPPC   O35 8635   6.216   2.309   2.465
  173DPPC   C36 8636   6.207   2.436   2.670
  173DPPC   C37 8637   6.315   2.453   2.777
  173DPPC   C38 8638   6.259   2.527   2.899
  173DPPC   C39 8639   6.343   2.533   3.027
  173DPPC   C40 8640   6.296   2.637   3.128
  173DPPC   C41 8641   6.340   2.606   3.272
  173DPPC   C42 8642   6.275   2.707   3.366
  173DPPC   C43 8643   6.339   2.711   3.505
  173DPPC   C44 8644   6.326   2.568   3.558
  173DPPC   C45 8645   6.372   2.574   3.704
  173DPPC   C46 8646   6.294   2.679   3.783
  173DPPC   C47 8647   6.339   2.688   3.929
  173DPPC   C48 8648   6.292   2.822   3.987
  173DPPC   C49 8649   6.382   2.944   3.967
  173DPPC   C50 8650   6.311   3.078   3.981
  174DPPC    C1 8651   9.027   4.871   1.216
  174DPPC    C2 8652   9.173   4.813   1.376
  174DPPC    C3 8653   9.034   4.634   1.298
  174DPPC    N4 8654   9.107   4.756   1.258
  174DPPC    C5 8655   9.192   4.742   1.139
  174DPPC    C6 8656   9.280   4.617   1.138
  174DPPC    O7 8657   9.355   4.606   1.260
  174DPPC    P8 8658   9.425   4.462   1.240
  174DPPC    O9 8659   9.511   4.467   1.119
  174DPPC   O10 8660   9.310   4.369   1.241
  174DPPC   O11 8661   9.511   4.470   1.376
  174DPPC   C12 8662   9.427   4.433   1.486
  174DPPC   C13 8663   9.497   4.450   1.620
  174DPPC   O14 8664   9.417   4.416   1.734
  174DPPC   C15 8665   9.428   4.284   1.766
  174DPPC   O16 8666   9.477   4.201   1.689
  174DPPC   C17 8667   9.367   4.234   1.897
  174DPPC   C18 8668   9.361   4.340   2.007
  174DPPC   C19 8669   9.302   4.278   2.134
  174DPPC   C20 8670   9.294   4.374   2.253
  174DPPC   C21 8671   9.210   4.328   2.372
  174DPPC   C22 8672   9.211   4.418   2.496
  174DPPC   C23 8673   9.150   4.335   2.609
  174DPPC   C24 8674   9.151   4.400   2.748
  174DPPC   C25 8675   9.139   4.293   2.857
  174DPPC   C26 8676   9.113   4.347   2.998
  174DPPC   C27 8677   9.074   4.236   3.096
  174DPPC   C28 8678   8.945   4.167   3.051
  174DPPC   C29 8679   8.911   4.073   3.167
  174DPPC   C30 8680   8.792   3.982   3.134
  174DPPC   C31 8681   8.708   3.950   3.257
  174DPPC   C32 8682   9.566   4.587   1.621
  174DPPC   O33 8683   9.479   4.697   1.594
  174DPPC   C34 8684   9.541   4.818   1.600
  174DPPC   O35 8685   9.664   4.823   1.594
  174DPPC   C36 8686   9.445   4.937   1.595
  174DPPC   C37 8687   9.485   5.037   1.703
  174DPPC   C38 8688   9.391   5.158   1.700
  174DPPC   C39 8689   9.402   5.260   1.813
  174DPPC   C40 8690   9.393   5.198   1.953
  174DPPC   C41 8691   9.376   5.308   2.059
  174DPPC   C42 8692   9.358   5.239   2.194
  174DPPC   C43 8693   9.388   5.338   2.307
  174DPPC   C44 8694   9.352   5.275   2.442
  174DPPC   C45 8695   9.391   5.371   2.555
  174DPPC   C46 8696   9.333   5.327   2.690
  174DPPC   C47 8697   9.375   5.436   2.789
  174DPPC   C48 8698   9.303   5.403   2.920
  174DPPC   C49 8699   9.153   5.414   2.890
  174DPPC   C50 8700   9.060   5.367   3.002
  175DPPC    C1 8701   3.796   1.703   1.999
  175DPPC    C2 8702   3.986   1.819   2.076
  175DPPC    C3 8703   3.780   1.913   2.115
  175DPPC    N4 8704   3.848   1.783   2.111
  175DPPC    C5 8705   3.856   1.718   2.243
  175DPPC    C6 8706   3.725   1.649   2.285
  175DPPC    O7 8707   3.612   1.734   2.303
  175DPPC    P8 8708   3.474   1.653   2.322
  175DPPC    O9 8709   3.514   1.513   2.348
  175DPPC   O10 8710   3.374   1.705   2.225
  175DPPC   O11 8711   3.453   1.724   2.465
  175DPPC   C12 8712   3.486   1.629   2.567
  175DPPC   C13 8713   3.510   1.695   2.703
  175DPPC   O14 8714   3.593   1.627   2.798
  175DPPC   C15 8715   3.726   1.612   2.775
  175DPPC   O16 8716   3.786   1.680   2.692
  175DPPC   C17 8717   3.796   1.533   2.886
  175DPPC   C18 8718   3.780   1.617   3.013
  175DPPC   C19 8719   3.829   1.561   3.147
  175DPPC   C20 8720   3.842   1.671   3.253
  175DPPC   C21 8721   3.880   1.620   3.392
  175DPPC   C22 8722   4.012   1.545   3.410
  175DPPC   C23 8723   4.039   1.512   3.557
  175DPPC   C24 8724   4.051   1.626   3.658
  175DPPC   C25 8725   4.071   1.582   3.803
  175DPPC   C26 8726   4.099   1.708   3.886
  175DPPC   C27 8727   4.142   1.667   4.027
  175DPPC   C28 8728   4.211   1.781   4.103
  175DPPC   C29 8729   4.230   1.756   4.253
  175DPPC   C30 8730   4.322   1.634   4.256
  175DPPC   C31 8731   4.460   1.657   4.195
  175DPPC   C32 8732   3.375   1.752   2.748
  175DPPC   O33 8733   3.281   1.645   2.759
  175DPPC   C34 8734   3.165   1.664   2.828
  175DPPC   O35 8735   3.092   1.750   2.778
  175DPPC   C36 8736   3.110   1.526   2.865
  175DPPC   C37 8737   2.970   1.549   2.922
  175DPPC   C38 8738   2.905   1.414   2.955
  175DPPC   C39 8739   2.990   1.323   3.044
  175DPPC   C40 8740   2.913   1.192   3.058
  175DPPC   C41 8741   2.994   1.098   3.148
  175DPPC   C42 8742   3.019   1.163   3.284
  175DPPC   C43 8743   3.131   1.096   3.363
  175DPPC   C44 8744   3.188   1.173   3.482
  175DPPC   C45 8745   3.302   1.077   3.516
  175DPPC   C46 8746   3.390   1.133   3.627
  175DPPC   C47 8747   3.324   1.170   3.760
  175DPPC   C48 8748   3.440   1.170   3.860
  175DPPC   C49 8749   3.391   1.218   3.997
  175DPPC   C50 8750   3.485   1.190   4.114
  176DPPC    C1 8751   8.368   4.696   1.276
  176DPPC    C2 8752   8.437   4.723   1.045
  176DPPC    C3 8753   8.204   4.702   1.109
  176DPPC    N4 8754   8.336   4.757   1.146
  176DPPC    C5 8755   8.321   4.903   1.157
  176DPPC    C6 8756   8.451   4.984   1.169
  176DPPC    O7 8757   8.495   4.999   1.304
  176DPPC    P8 8758   8.651   5.038   1.313
  176DPPC    O9 8759   8.660   5.170   1.378
  176DPPC   O10 8760   8.707   5.030   1.176
  176DPPC   O11 8761   8.702   4.911   1.398
  176DPPC   C12 8762   8.631   4.889   1.521
  176DPPC   C13 8763   8.695   4.785   1.613
  176DPPC   O14 8764   8.613   4.752   1.726
  176DPPC   C15 8765   8.639   4.630   1.782
  176DPPC   O16 8766   8.698   4.545   1.717
  176DPPC   C17 8767   8.562   4.596   1.910
  176DPPC   C18 8768   8.421   4.538   1.894
  176DPPC   C19 8769   8.357   4.514   2.031
  176DPPC   C20 8770   8.212   4.465   2.041
  176DPPC   C21 8771   8.187   4.405   2.180
  176DPPC   C22 8772   8.044   4.353   2.189
  176DPPC   C23 8773   8.008   4.293   2.326
  176DPPC   C24 8774   7.975   4.405   2.425
  176DPPC   C25 8775   7.949   4.356   2.568
  176DPPC   C26 8776   7.877   4.457   2.657
  176DPPC   C27 8777   7.857   4.411   2.802
  176DPPC   C28 8778   7.778   4.516   2.880
  176DPPC   C29 8779   7.795   4.486   3.029
  176DPPC   C30 8780   7.946   4.506   3.040
  176DPPC   C31 8781   8.000   4.433   3.164
  176DPPC   C32 8782   8.838   4.830   1.641
  176DPPC   O33 8783   8.842   4.961   1.700
  176DPPC   C34 8784   8.966   5.011   1.727
  176DPPC   O35 8785   9.065   4.945   1.696
  176DPPC   C36 8786   8.956   5.134   1.817
  176DPPC   C37 8787   8.952   5.103   1.967
  176DPPC   C38 8788   8.966   5.238   2.036
  176DPPC   C39 8789   8.936   5.222   2.185
  176DPPC   C40 8790   8.970   5.345   2.270
  176DPPC   C41 8791   8.918   5.332   2.413
  176DPPC   C42 8792   8.905   5.463   2.490
  176DPPC   C43 8793   8.850   5.428   2.628
  176DPPC   C44 8794   8.814   5.565   2.686
  176DPPC   C45 8795   8.753   5.555   2.826
  176DPPC   C46 8796   8.627   5.468   2.832
  176DPPC   C47 8797   8.501   5.545   2.794
  176DPPC   C48 8798   8.378   5.454   2.784
  176DPPC   C49 8799   8.280   5.532   2.696
  176DPPC   C50 8800   8.240   5.652   2.782
  177DPPC    C1 8801   9.210   2.550   1.708
  177DPPC    C2 8802   9.021   2.555   1.555
  177DPPC    C3 8803   9.015   2.632   1.777
  177DPPC    N4 8804   9.098   2.629   1.655
  177DPPC    C5 8805   9.152   2.759   1.613
  177DPPC    C6 8806   9.090   2.831   1.494
  177DPPC    O7 8807   8.958   2.878   1.525
  177DPPC    P8 8808   8.970   3.035   1.559
  177DPPC    O9 8809   8.890   3.122   1.470
  177DPPC   O10 8810   9.107   3.064   1.607
  177DPPC   O11 8811   8.886   3.029   1.696
  177DPPC   C12 8812   8.970   3.034   1.812
  177DPPC   C13 8813   8.907   3.065   1.948
  177DPPC   O14 8814   8.852   2.949   2.011
  177DPPC   C15 8815   8.924   2.862   2.087
  177DPPC   O16 8816   9.047   2.855   2.085
  177DPPC   C17 8817   8.844   2.754   2.160
  177DPPC   C18 8818   8.824   2.789   2.308
  177DPPC   C19 8819   8.741   2.692   2.393
  177DPPC   C20 8820   8.714   2.749   2.532
  177DPPC   C21 8821   8.622   2.651   2.606
  177DPPC   C22 8822   8.635   2.656   2.758
  177DPPC   C23 8823   8.547   2.552   2.827
  177DPPC   C24 8824   8.534   2.557   2.980
  177DPPC   C25 8825   8.485   2.692   3.032
  177DPPC   C26 8826   8.450   2.683   3.181
  177DPPC   C27 8827   8.347   2.576   3.216
  177DPPC   C28 8828   8.326   2.558   3.366
  177DPPC   C29 8829   8.208   2.462   3.381
  177DPPC   C30 8830   8.193   2.436   3.531
  177DPPC   C31 8831   8.063   2.370   3.579
  177DPPC   C32 8832   8.802   3.175   1.931
  177DPPC   O33 8833   8.720   3.205   2.044
  177DPPC   C34 8834   8.617   3.129   2.088
  177DPPC   O35 8835   8.573   3.032   2.025
  177DPPC   C36 8836   8.540   3.174   2.212
  177DPPC   C37 8837   8.637   3.233   2.315
  177DPPC   C38 8838   8.559   3.287   2.436
  177DPPC   C39 8839   8.664   3.344   2.532
  177DPPC   C40 8840   8.757   3.231   2.576
  177DPPC   C41 8841   8.848   3.285   2.687
  177DPPC   C42 8842   8.957   3.178   2.696
  177DPPC   C43 8843   8.898   3.055   2.766
  177DPPC   C44 8844   8.998   2.949   2.809
  177DPPC   C45 8845   8.946   2.827   2.886
  177DPPC   C46 8846   9.054   2.755   2.966
  177DPPC   C47 8847   9.013   2.662   3.081
  177DPPC   C48 8848   8.911   2.555   3.043
  177DPPC   C49 8849   8.837   2.486   3.157
  177DPPC   C50 8850   8.922   2.382   3.230
  178DPPC    C1 8851   8.061   2.189   1.859
  178DPPC    C2 8852   8.163   2.402   1.920
  178DPPC    C3 8853   8.239   2.189   2.009
  178DPPC    N4 8854   8.185   2.259   1.892
  178DPPC    C5 8855   8.272   2.245   1.774
  178DPPC    C6 8856   8.423   2.254   1.798
  178DPPC    O7 8857   8.469   2.386   1.824
  178DPPC    P8 8858   8.618   2.388   1.885
  178DPPC    O9 8859   8.656   2.530   1.906
  178DPPC   O10 8860   8.707   2.312   1.795
  178DPPC   O11 8861   8.573   2.312   2.020
  178DPPC   C12 8862   8.536   2.398   2.128
  178DPPC   C13 8863   8.501   2.317   2.253
  178DPPC   O14 8864   8.472   2.396   2.369
  178DPPC   C15 8865   8.339   2.417   2.391
  178DPPC   O16 8866   8.262   2.417   2.295
  178DPPC   C17 8867   8.289   2.442   2.533
  178DPPC   C18 8868   8.137   2.433   2.546
  178DPPC   C19 8869   8.114   2.468   2.694
  178DPPC   C20 8870   8.155   2.613   2.723
  178DPPC   C21 8871   8.116   2.625   2.871
  178DPPC   C22 8872   8.094   2.773   2.903
  178DPPC   C23 8873   8.067   2.781   3.054
  178DPPC   C24 8874   8.055   2.930   3.088
  178DPPC   C25 8875   8.118   2.962   3.223
  178DPPC   C26 8876   8.151   3.110   3.241
  178DPPC   C27 8877   8.178   3.159   3.383
  178DPPC   C28 8878   8.311   3.096   3.426
  178DPPC   C29 8879   8.355   3.146   3.563
  178DPPC   C30 8880   8.493   3.085   3.587
  178DPPC   C31 8881   8.550   3.128   3.723
  178DPPC   C32 8882   8.624   2.229   2.274
  178DPPC   O33 8883   8.615   2.116   2.362
  178DPPC   C34 8884   8.544   2.002   2.344
  178DPPC   O35 8885   8.495   1.976   2.235
  178DPPC   C36 8886   8.538   1.912   2.468
  178DPPC   C37 8887   8.429   1.959   2.565
  178DPPC   C38 8888   8.435   1.888   2.701
  178DPPC   C39 8889   8.310   1.937   2.774
  178DPPC   C40 8890   8.291   1.866   2.908
  178DPPC   C41 8891   8.170   1.929   2.977
  178DPPC   C42 8892   8.153   1.851   3.107
  178DPPC   C43 8893   8.026   1.908   3.169
  178DPPC   C44 8894   7.996   1.854   3.309
  178DPPC   C45 8895   7.892   1.951   3.365
  178DPPC   C46 8896   7.809   1.894   3.481
  178DPPC   C47 8897   7.722   1.777   3.433
  178DPPC   C48 8898   7.640   1.717   3.547
  178DPPC   C49 8899   7.536   1.813   3.605
  178DPPC   C50 8900   7.401   1.741   3.616
  179DPPC    C1 8901   5.328   6.370   2.025
  179DPPC    C2 8902   5.445   6.270   2.207
  179DPPC    C3 8903   5.217   6.265   2.201
  179DPPC    N4 8904   5.334   6.252   2.112
  179DPPC    C5 8905   5.357   6.118   2.057
  179DPPC    C6 8906   5.237   6.061   1.980
  179DPPC    O7 8907   5.204   6.116   1.852
  179DPPC    P8 8908   5.045   6.110   1.830
  179DPPC    O9 8909   4.991   5.976   1.864
  179DPPC   O10 8910   5.002   6.191   1.714
  179DPPC   O11 8911   5.003   6.196   1.960
  179DPPC   C12 8912   4.887   6.279   1.952
  179DPPC   C13 8913   4.832   6.343   2.080
  179DPPC   O14 8914   4.922   6.441   2.134
  179DPPC   C15 8915   4.868   6.530   2.221
  179DPPC   O16 8916   4.760   6.583   2.193
  179DPPC   C17 8917   4.951   6.574   2.341
  179DPPC   C18 8918   4.919   6.493   2.466
  179DPPC   C19 8919   5.010   6.515   2.588
  179DPPC   C20 8920   5.156   6.503   2.544
  179DPPC   C21 8921   5.258   6.504   2.658
  179DPPC   C22 8922   5.239   6.365   2.720
  179DPPC   C23 8923   5.321   6.348   2.848
  179DPPC   C24 8924   5.257   6.439   2.953
  179DPPC   C25 8925   5.329   6.428   3.087
  179DPPC   C26 8926   5.321   6.285   3.143
  179DPPC   C27 8927   5.399   6.289   3.275
  179DPPC   C28 8928   5.367   6.171   3.367
  179DPPC   C29 8929   5.420   6.203   3.507
  179DPPC   C30 8930   5.419   6.081   3.600
  179DPPC   C31 8931   5.280   6.064   3.661
  179DPPC   C32 8932   4.802   6.213   2.155
  179DPPC   O33 8933   4.794   6.214   2.297
  179DPPC   C34 8934   4.764   6.101   2.367
  179DPPC   O35 8935   4.753   5.997   2.303
  179DPPC   C36 8936   4.773   6.101   2.520
  179DPPC   C37 8937   4.906   6.100   2.596
  179DPPC   C38 8938   4.882   6.092   2.747
  179DPPC   C39 8939   5.012   6.060   2.821
  179DPPC   C40 8940   5.003   6.082   2.972
  179DPPC   C41 8941   4.881   5.997   3.006
  179DPPC   C42 8942   4.861   5.969   3.155
  179DPPC   C43 8943   4.738   5.885   3.188
  179DPPC   C44 8944   4.694   5.905   3.333
  179DPPC   C45 8945   4.577   5.812   3.367
  179DPPC   C46 8946   4.524   5.827   3.510
  179DPPC   C47 8947   4.387   5.760   3.515
  179DPPC   C48 8948   4.396   5.608   3.495
  179DPPC   C49 8949   4.293   5.529   3.575
  179DPPC   C50 8950   4.146   5.570   3.566
  180DPPC    C1 8951   6.028   2.595   1.391
  180DPPC    C2 8952   6.251   2.578   1.460
  180DPPC    C3 8953   6.140   2.791   1.457
  180DPPC    N4 8954   6.125   2.648   1.488
  180DPPC    C5 8955   6.072   2.643   1.625
  180DPPC    C6 8956   6.150   2.716   1.733
  180DPPC    O7 8957   6.066   2.732   1.848
  180DPPC    P8 8958   6.139   2.827   1.956
  180DPPC    O9 8959   6.058   2.951   1.957
  180DPPC   O10 8960   6.286   2.828   1.939
  180DPPC   O11 8961   6.104   2.740   2.087
  180DPPC   C12 8962   6.000   2.809   2.157
  180DPPC   C13 8963   5.984   2.740   2.292
  180DPPC   O14 8964   5.848   2.708   2.323
  180DPPC   C15 8965   5.817   2.588   2.381
  180DPPC   O16 8966   5.840   2.487   2.314
  180DPPC   C17 8967   5.734   2.577   2.509
  180DPPC   C18 8968   5.807   2.476   2.598
  180DPPC   C19 8969   5.783   2.474   2.749
  180DPPC   C20 8970   5.848   2.349   2.808
  180DPPC   C21 8971   5.825   2.329   2.958
  180DPPC   C22 8972   5.884   2.192   2.994
  180DPPC   C23 8973   6.037   2.191   2.979
  180DPPC   C24 8974   6.083   2.047   3.001
  180DPPC   C25 8975   6.215   2.024   2.928
  180DPPC   C26 8976   6.310   2.128   2.987
  180DPPC   C27 8977   6.449   2.111   2.925
  180DPPC   C28 8978   6.555   2.204   2.987
  180DPPC   C29 8979   6.547   2.193   3.139
  180DPPC   C30 8980   6.630   2.301   3.208
  180DPPC   C31 8981   6.633   2.273   3.359
  180DPPC   C32 8982   6.077   2.818   2.385
  180DPPC   O33 8983   6.037   2.833   2.522
  180DPPC   C34 8984   6.104   2.924   2.599
  180DPPC   O35 8985   6.160   3.018   2.545
  180DPPC   C36 8986   6.065   2.932   2.747
  180DPPC   C37 8987   5.918   2.902   2.776
  180DPPC   C38 8988   5.887   2.927   2.923
  180DPPC   C39 8989   5.751   2.874   2.966
  180DPPC   C40 8990   5.727   2.888   3.116
  180DPPC   C41 8991   5.607   2.819   3.182
  180DPPC   C42 8992   5.616   2.820   3.335
  180DPPC   C43 8993   5.483   2.764   3.385
  180DPPC   C44 8994   5.463   2.770   3.537
  180DPPC   C45 8995   5.328   2.709   3.570
  180DPPC   C46 8996   5.227   2.797   3.497
  180DPPC   C47 8997   5.202   2.919   3.586
  180DPPC   C48 8998   5.084   3.001   3.534
  180DPPC   C49 8999   5.003   3.059   3.650
  180DPPC   C50 9000   5.093   3.118   3.759
  181DPPC    C1 9001   5.691   5.828   1.578
  181DPPC    C2 9002   5.851   5.792   1.763
  181DPPC    C3 9003   5.638   5.897   1.786
  181DPPC    N4 9004   5.712   5.790   1.718
  181DPPC    C5 9005   5.649   5.662   1.756
  181DPPC    C6 9006   5.670   5.529   1.685
  181DPPC    O7 9007   5.640   5.414   1.765
  181DPPC    P8 9008   5.722   5.282   1.724
  181DPPC    O9 9009   5.802   5.326   1.608
  181DPPC   O10 9010   5.622   5.175   1.702
  181DPPC   O11 9011   5.801   5.264   1.864
  181DPPC   C12 9012   5.704   5.268   1.969
  181DPPC   C13 9013   5.761   5.246   2.110
  181DPPC   O14 9014   5.671   5.297   2.210
  181DPPC   C15 9015   5.581   5.210   2.263
  181DPPC   O16 9016   5.573   5.091   2.236
  181DPPC   C17 9017   5.537   5.269   2.397
  181DPPC   C18 9018   5.402   5.337   2.377
  181DPPC   C19 9019   5.364   5.425   2.496
  181DPPC   C20 9020   5.304   5.342   2.610
  181DPPC   C21 9021   5.320   5.416   2.743
  181DPPC   C22 9022   5.252   5.349   2.862
  181DPPC   C23 9023   5.258   5.443   2.983
  181DPPC   C24 9024   5.224   5.376   3.117
  181DPPC   C25 9025   5.085   5.312   3.117
  181DPPC   C26 9026   4.974   5.416   3.130
  181DPPC   C27 9027   4.842   5.362   3.077
  181DPPC   C28 9028   4.721   5.436   3.136
  181DPPC   C29 9029   4.597   5.391   3.060
  181DPPC   C30 9030   4.476   5.479   3.094
  181DPPC   C31 9031   4.493   5.616   3.026
  181DPPC   C32 9032   5.902   5.305   2.120
  181DPPC   O33 9033   5.979   5.246   2.225
  181DPPC   C34 9034   6.113   5.267   2.227
  181DPPC   O35 9035   6.161   5.355   2.155
  181DPPC   C36 9036   6.194   5.187   2.329
  181DPPC   C37 9037   6.213   5.281   2.448
  181DPPC   C38 9038   6.267   5.221   2.578
  181DPPC   C39 9039   6.259   5.320   2.695
  181DPPC   C40 9040   6.324   5.258   2.819
  181DPPC   C41 9041   6.475   5.231   2.811
  181DPPC   C42 9042   6.522   5.169   2.943
  181DPPC   C43 9043   6.669   5.125   2.948
  181DPPC   C44 9044   6.686   5.017   3.055
  181DPPC   C45 9045   6.593   4.896   3.041
  181DPPC   C46 9046   6.649   4.770   3.107
  181DPPC   C47 9047   6.672   4.805   3.254
  181DPPC   C48 9048   6.750   4.702   3.336
  181DPPC   C49 9049   6.698   4.559   3.330
  181DPPC   C50 9050   6.784   4.452   3.396
  182DPPC    C1 9051   8.130   0.538   1.491
  182DPPC    C2 9052   8.351   0.631   1.468
  182DPPC    C3 9053   8.227   0.592   1.276
  182DPPC    N4 9054   8.214   0.633   1.416
  182DPPC    C5 9055   8.165   0.772   1.426
  182DPPC    C6 9056   8.021   0.805   1.387
  182DPPC    O7 9057   8.002   0.946   1.371
  182DPPC    P8 9058   7.861   0.958   1.294
  182DPPC    O9 9059   7.854   0.839   1.207
  182DPPC   O10 9060   7.846   1.099   1.252
  182DPPC   O11 9061   7.790   0.917   1.432
  182DPPC   C12 9062   7.777   1.036   1.510
  182DPPC   C13 9063   7.715   0.993   1.644
  182DPPC   O14 9064   7.685   1.109   1.722
  182DPPC   C15 9065   7.569   1.179   1.707
  182DPPC   O16 9066   7.481   1.150   1.627
  182DPPC   C17 9067   7.549   1.304   1.794
  182DPPC   C18 9068   7.432   1.288   1.891
  182DPPC   C19 9069   7.401   1.426   1.949
  182DPPC   C20 9070   7.296   1.417   2.059
  182DPPC   C21 9071   7.245   1.554   2.106
  182DPPC   C22 9072   7.146   1.533   2.221
  182DPPC   C23 9073   7.205   1.470   2.347
  182DPPC   C24 9074   7.097   1.446   2.452
  182DPPC   C25 9075   7.164   1.409   2.585
  182DPPC   C26 9076   7.067   1.396   2.703
  182DPPC   C27 9077   7.133   1.392   2.841
  182DPPC   C28 9078   7.048   1.333   2.953
  182DPPC   C29 9079   7.126   1.344   3.084
  182DPPC   C30 9080   7.042   1.266   3.186
  182DPPC   C31 9081   7.095   1.265   3.329
  182DPPC   C32 9082   7.814   0.889   1.698
  182DPPC   O33 9083   7.934   0.959   1.730
  182DPPC   C34 9084   8.038   0.884   1.775
  182DPPC   O35 9085   8.045   0.762   1.764
  182DPPC   C36 9086   8.135   0.970   1.856
  182DPPC   C37 9087   8.091   1.007   1.998
  182DPPC   C38 9088   8.193   1.097   2.068
  182DPPC   C39 9089   8.163   1.111   2.217
  182DPPC   C40 9090   8.274   1.195   2.280
  182DPPC   C41 9091   8.241   1.234   2.424
  182DPPC   C42 9092   8.146   1.354   2.418
  182DPPC   C43 9093   8.119   1.427   2.550
  182DPPC   C44 9094   8.054   1.560   2.511
  182DPPC   C45 9095   8.014   1.639   2.636
  182DPPC   C46 9096   7.888   1.566   2.682
  182DPPC   C47 9097   7.833   1.636   2.806
  182DPPC   C48 9098   7.700   1.574   2.852
  182DPPC   C49 9099   7.654   1.622   2.990
  182DPPC   C50 9100   7.752   1.597   3.104
  183DPPC    C1 9101   7.579   3.472   1.850
  183DPPC    C2 9102   7.612   3.663   1.727
  183DPPC    C3 9103   7.517   3.464   1.621
  183DPPC    N4 9104   7.519   3.550   1.741
  183DPPC    C5 9105   7.388   3.609   1.770
  183DPPC    C6 9106   7.259   3.527   1.774
  183DPPC    O7 9107   7.246   3.418   1.865
  183DPPC    P8 9108   7.106   3.339   1.863
  183DPPC    O9 9109   7.117   3.234   1.967
  183DPPC   O10 9110   7.072   3.314   1.722
  183DPPC   O11 9111   7.022   3.461   1.926
  183DPPC   C12 9112   6.995   3.433   2.064
  183DPPC   C13 9113   7.072   3.532   2.152
  183DPPC   O14 9114   7.088   3.477   2.283
  183DPPC   C15 9115   7.192   3.539   2.347
  183DPPC   O16 9116   7.296   3.573   2.291
  183DPPC   C17 9117   7.189   3.520   2.498
  183DPPC   C18 9118   7.300   3.429   2.552
  183DPPC   C19 9119   7.274   3.409   2.701
  183DPPC   C20 9120   7.370   3.323   2.784
  183DPPC   C21 9121   7.309   3.328   2.925
  183DPPC   C22 9122   7.406   3.252   3.016
  183DPPC   C23 9123   7.350   3.268   3.157
  183DPPC   C24 9124   7.440   3.222   3.272
  183DPPC   C25 9125   7.361   3.208   3.402
  183DPPC   C26 9126   7.432   3.158   3.528
  183DPPC   C27 9127   7.561   3.235   3.560
  183DPPC   C28 9128   7.619   3.202   3.698
  183DPPC   C29 9129   7.519   3.193   3.813
  183DPPC   C30 9130   7.591   3.139   3.937
  183DPPC   C31 9131   7.656   3.002   3.919
  183DPPC   C32 9132   6.997   3.664   2.138
  183DPPC   O33 9133   7.061   3.776   2.201
  183DPPC   C34 9134   7.169   3.831   2.140
  183DPPC   O35 9135   7.227   3.777   2.046
  183DPPC   C36 9136   7.230   3.954   2.207
  183DPPC   C37 9137   7.321   3.916   2.324
  183DPPC   C38 9138   7.233   3.903   2.448
  183DPPC   C39 9139   7.326   3.885   2.568
  183DPPC   C40 9140   7.235   3.873   2.691
  183DPPC   C41 9141   7.284   3.768   2.791
  183DPPC   C42 9142   7.418   3.824   2.841
  183DPPC   C43 9143   7.477   3.749   2.960
  183DPPC   C44 9144   7.377   3.757   3.076
  183DPPC   C45 9145   7.427   3.707   3.212
  183DPPC   C46 9146   7.326   3.743   3.321
  183DPPC   C47 9147   7.201   3.661   3.290
  183DPPC   C48 9148   7.091   3.673   3.395
  183DPPC   C49 9149   6.998   3.553   3.376
  183DPPC   C50 9150   6.917   3.568   3.247
  184DPPC    C1 9151   1.702   1.705   1.694
  184DPPC    C2 9152   1.492   1.732   1.802
  184DPPC    C3 9153   1.686   1.702   1.924
  184DPPC    N4 9154   1.634   1.772   1.805
  184DPPC    C5 9155   1.660   1.915   1.824
  184DPPC    C6 9156   1.604   2.001   1.710
  184DPPC    O7 9157   1.650   2.136   1.722
  184DPPC    P8 9158   1.577   2.201   1.595
  184DPPC    O9 9159   1.540   2.109   1.485
  184DPPC   O10 9160   1.628   2.340   1.587
  184DPPC   O11 9161   1.448   2.222   1.689
  184DPPC   C12 9162   1.471   2.322   1.789
  184DPPC   C13 9163   1.360   2.335   1.894
  184DPPC   O14 9164   1.378   2.455   1.971
  184DPPC   C15 9165   1.267   2.531   1.994
  184DPPC   O16 9166   1.173   2.509   1.918
  184DPPC   C17 9167   1.287   2.653   2.084
  184DPPC   C18 9168   1.318   2.600   2.224
  184DPPC   C19 9169   1.187   2.549   2.284
  184DPPC   C20 9170   1.204   2.528   2.435
  184DPPC   C21 9171   1.075   2.490   2.508
  184DPPC   C22 9172   1.097   2.505   2.658
  184DPPC   C23 9173   0.972   2.437   2.715
  184DPPC   C24 9174   0.952   2.485   2.859
  184DPPC   C25 9175   0.842   2.427   2.947
  184DPPC   C26 9176   0.829   2.483   3.089
  184DPPC   C27 9177   0.700   2.420   3.141
  184DPPC   C28 9178   0.668   2.446   3.289
  184DPPC   C29 9179   0.774   2.373   3.372
  184DPPC   C30 9180   0.748   2.222   3.366
  184DPPC   C31 9181   0.853   2.159   3.457
  184DPPC   C32 9182   1.349   2.199   1.963
  184DPPC   O33 9183   1.472   2.170   2.029
  184DPPC   C34 9184   1.481   2.051   2.095
  184DPPC   O35 9185   1.443   1.951   2.034
  184DPPC   C36 9186   1.606   2.039   2.183
  184DPPC   C37 9187   1.596   1.944   2.303
  184DPPC   C38 9188   1.722   1.958   2.389
  184DPPC   C39 9189   1.698   1.890   2.524
  184DPPC   C40 9190   1.828   1.919   2.599
  184DPPC   C41 9191   1.845   2.071   2.592
  184DPPC   C42 9192   1.762   2.139   2.701
  184DPPC   C43 9193   1.801   2.071   2.833
  184DPPC   C44 9194   1.763   2.151   2.958
  184DPPC   C45 9195   1.828   2.080   3.077
  184DPPC   C46 9196   1.807   1.930   3.055
  184DPPC   C47 9197   1.886   1.840   3.149
  184DPPC   C48 9198   1.860   1.691   3.129
  184DPPC   C49 9199   1.923   1.612   3.244
  184DPPC   C50 9200   1.874   1.467   3.247
  185DPPC    C1 9201   6.658   7.194   1.597
  185DPPC    C2 9202   6.608   7.281   1.832
  185DPPC    C3 9203   6.482   7.340   1.642
  185DPPC    N4 9204   6.562   7.233   1.702
  185DPPC    C5 9205   6.462   7.128   1.725
  185DPPC    C6 9206   6.495   6.982   1.755
  185DPPC    O7 9207   6.603   6.976   1.848
  185DPPC    P8 9208   6.709   6.862   1.807
  185DPPC    O9 9209   6.834   6.904   1.875
  185DPPC   O10 9210   6.705   6.848   1.660
  185DPPC   O11 9211   6.648   6.745   1.900
  185DPPC   C12 9212   6.663   6.786   2.036
  185DPPC   C13 9213   6.567   6.702   2.121
  185DPPC   O14 9214   6.558   6.727   2.262
  185DPPC   C15 9215   6.446   6.680   2.323
  185DPPC   O16 9216   6.355   6.628   2.258
  185DPPC   C17 9217   6.431   6.715   2.471
  185DPPC   C18 9218   6.296   6.781   2.498
  185DPPC   C19 9219   6.247   6.755   2.641
  185DPPC   C20 9220   6.329   6.820   2.753
  185DPPC   C21 9221   6.280   6.791   2.895
  185DPPC   C22 9222   6.375   6.862   2.991
  185DPPC   C23 9223   6.349   6.826   3.138
  185DPPC   C24 9224   6.446   6.890   3.238
  185DPPC   C25 9225   6.435   6.822   3.375
  185DPPC   C26 9226   6.518   6.910   3.469
  185DPPC   C27 9227   6.556   6.837   3.599
  185DPPC   C28 9228   6.636   6.915   3.703
  185DPPC   C29 9229   6.690   6.817   3.808
  185DPPC   C30 9230   6.585   6.788   3.915
  185DPPC   C31 9231   6.640   6.696   4.024
  185DPPC   C32 9232   6.632   6.565   2.098
  185DPPC   O33 9233   6.774   6.558   2.111
  185DPPC   C34 9234   6.826   6.447   2.052
  185DPPC   O35 9235   6.756   6.369   1.988
  185DPPC   C36 9236   6.977   6.446   2.080
  185DPPC   C37 9237   7.027   6.343   2.181
  185DPPC   C38 9238   7.030   6.395   2.324
  185DPPC   C39 9239   7.064   6.282   2.422
  185DPPC   C40 9240   7.075   6.334   2.565
  185DPPC   C41 9241   7.113   6.227   2.667
  185DPPC   C42 9242   7.243   6.147   2.650
  185DPPC   C43 9243   7.239   6.024   2.742
  185DPPC   C44 9244   7.360   5.935   2.714
  185DPPC   C45 9245   7.364   5.820   2.814
  185DPPC   C46 9246   7.490   5.733   2.817
  185DPPC   C47 9247   7.482   5.636   2.699
  185DPPC   C48 9248   7.602   5.542   2.691
  185DPPC   C49 9249   7.738   5.612   2.687
  185DPPC   C50 9250   7.847   5.510   2.655
  186DPPC    C1 9251   6.811   2.122   1.862
  186DPPC    C2 9252   6.808   2.351   1.856
  186DPPC    C3 9253   6.615   2.234   1.772
  186DPPC    N4 9254   6.719   2.236   1.876
  186DPPC    C5 9255   6.657   2.253   2.008
  186DPPC    C6 9256   6.557   2.147   2.054
  186DPPC    O7 9257   6.611   2.015   2.068
  186DPPC    P8 9258   6.502   1.898   2.080
  186DPPC    O9 9259   6.583   1.775   2.094
  186DPPC   O10 9260   6.418   1.921   1.960
  186DPPC   O11 9261   6.447   1.947   2.223
  186DPPC   C12 9262   6.532   1.872   2.310
  186DPPC   C13 9263   6.497   1.899   2.457
  186DPPC   O14 9264   6.381   1.831   2.505
  186DPPC   C15 9265   6.388   1.695   2.512
  186DPPC   O16 9266   6.478   1.640   2.450
  186DPPC   C17 9267   6.284   1.618   2.595
  186DPPC   C18 9268   6.333   1.556   2.726
  186DPPC   C19 9269   6.338   1.646   2.849
  186DPPC   C20 9270   6.354   1.560   2.975
  186DPPC   C21 9271   6.398   1.656   3.085
  186DPPC   C22 9272   6.382   1.606   3.228
  186DPPC   C23 9273   6.413   1.706   3.340
  186DPPC   C24 9274   6.309   1.818   3.350
  186DPPC   C25 9275   6.342   1.941   3.433
  186DPPC   C26 9276   6.265   2.066   3.391
  186DPPC   C27 9277   6.297   2.174   3.494
  186DPPC   C28 9278   6.221   2.143   3.623
  186DPPC   C29 9279   6.276   2.227   3.739
  186DPPC   C30 9280   6.204   2.192   3.869
  186DPPC   C31 9281   6.263   2.267   3.989
  186DPPC   C32 9282   6.499   2.050   2.479
  186DPPC   O33 9283   6.628   2.096   2.520
  186DPPC   C34 9284   6.638   2.231   2.532
  186DPPC   O35 9285   6.538   2.302   2.534
  186DPPC   C36 9286   6.771   2.289   2.581
  186DPPC   C37 9287   6.789   2.254   2.729
  186DPPC   C38 9288   6.929   2.281   2.783
  186DPPC   C39 9289   6.931   2.213   2.920
  186DPPC   C40 9290   7.079   2.205   2.959
  186DPPC   C41 9291   7.097   2.145   3.099
  186DPPC   C42 9292   7.057   2.238   3.213
  186DPPC   C43 9293   7.059   2.173   3.351
  186DPPC   C44 9294   7.060   2.277   3.463
  186DPPC   C45 9295   7.071   2.219   3.603
  186DPPC   C46 9296   7.018   2.325   3.700
  186DPPC   C47 9297   6.979   2.281   3.841
  186DPPC   C48 9298   6.869   2.174   3.843
  186DPPC   C49 9299   6.731   2.220   3.797
  186DPPC   C50 9300   6.630   2.130   3.869
  187DPPC    C1 9301   9.261   1.212   0.729
  187DPPC    C2 9302   9.038   1.183   0.749
  187DPPC    C3 9303   9.181   1.004   0.665
  187DPPC    N4 9304   9.164   1.109   0.767
  187DPPC    C5 9305   9.191   1.074   0.907
  187DPPC    C6 9306   9.112   0.956   0.963
  187DPPC    O7 9307   8.987   1.001   1.016
  187DPPC    P8 9308   8.935   0.869   1.093
  187DPPC    O9 9309   9.022   0.752   1.071
  187DPPC   O10 9310   8.789   0.845   1.086
  187DPPC   O11 9311   8.988   0.913   1.239
  187DPPC   C12 9312   8.888   0.927   1.340
  187DPPC   C13 9313   8.928   0.951   1.485
  187DPPC   O14 9314   8.836   0.930   1.594
  187DPPC   C15 9315   8.795   0.805   1.630
  187DPPC   O16 9316   8.852   0.710   1.578
  187DPPC   C17 9317   8.690   0.786   1.740
  187DPPC   C18 9318   8.707   0.665   1.831
  187DPPC   C19 9319   8.597   0.646   1.935
  187DPPC   C20 9320   8.459   0.620   1.873
  187DPPC   C21 9321   8.370   0.592   1.994
  187DPPC   C22 9322   8.363   0.726   2.067
  187DPPC   C23 9323   8.348   0.671   2.210
  187DPPC   C24 9324   8.350   0.799   2.294
  187DPPC   C25 9325   8.359   0.779   2.446
  187DPPC   C26 9326   8.375   0.917   2.508
  187DPPC   C27 9327   8.394   0.909   2.660
  187DPPC   C28 9328   8.371   1.041   2.734
  187DPPC   C29 9329   8.390   1.009   2.882
  187DPPC   C30 9330   8.541   0.999   2.907
  187DPPC   C31 9331   8.562   0.996   3.059
  187DPPC   C32 9332   8.975   1.096   1.481
  187DPPC   O33 9333   9.053   1.148   1.589
  187DPPC   C34 9334   9.178   1.094   1.596
  187DPPC   O35 9335   9.231   1.049   1.495
  187DPPC   C36 9336   9.243   1.096   1.735
  187DPPC   C37 9337   9.288   0.958   1.784
  187DPPC   C38 9338   9.176   0.884   1.855
  187DPPC   C39 9339   9.136   0.945   1.990
  187DPPC   C40 9340   9.025   0.857   2.047
  187DPPC   C41 9341   9.075   0.713   2.052
  187DPPC   C42 9342   8.965   0.615   2.093
  187DPPC   C43 9343   8.897   0.661   2.222
  187DPPC   C44 9344   8.795   0.560   2.275
  187DPPC   C45 9345   8.725   0.619   2.397
  187DPPC   C46 9346   8.670   0.517   2.497
  187DPPC   C47 9347   8.619   0.599   2.615
  187DPPC   C48 9348   8.603   0.511   2.739
  187DPPC   C49 9349   8.551   0.601   2.851
  187DPPC   C50 9350   8.479   0.529   2.965
  188DPPC    C1 9351   7.474   2.328   1.793
  188DPPC    C2 9352   7.578   2.122   1.727
  188DPPC    C3 9353   7.348   2.166   1.669
  188DPPC    N4 9354   7.481   2.226   1.687
  188DPPC    C5 9355   7.518   2.291   1.561
  188DPPC    C6 9356   7.654   2.350   1.522
  188DPPC    O7 9357   7.766   2.263   1.536
  188DPPC    P8 9358   7.895   2.359   1.525
  188DPPC    O9 9359   7.868   2.459   1.419
  188DPPC   O10 9360   8.020   2.280   1.532
  188DPPC   O11 9361   7.878   2.440   1.664
  188DPPC   C12 9362   7.897   2.578   1.631
  188DPPC   C13 9363   7.931   2.667   1.751
  188DPPC   O14 9364   8.073   2.674   1.769
  188DPPC   C15 9365   8.122   2.797   1.800
  188DPPC   O16 9366   8.093   2.894   1.731
  188DPPC   C17 9367   8.257   2.787   1.872
  188DPPC   C18 9368   8.255   2.740   2.018
  188DPPC   C19 9369   8.183   2.835   2.115
  188DPPC   C20 9370   8.233   2.815   2.259
  188DPPC   C21 9371   8.209   2.932   2.355
  188DPPC   C22 9372   8.286   2.886   2.478
  188DPPC   C23 9373   8.267   3.001   2.577
  188DPPC   C24 9374   8.353   2.964   2.698
  188DPPC   C25 9375   8.373   3.088   2.784
  188DPPC   C26 9376   8.451   3.063   2.913
  188DPPC   C27 9377   8.454   3.194   2.993
  188DPPC   C28 9378   8.524   3.162   3.125
  188DPPC   C29 9379   8.663   3.103   3.104
  188DPPC   C30 9380   8.714   3.071   3.245
  188DPPC   C31 9381   8.726   2.919   3.260
  188DPPC   C32 9382   7.844   2.609   1.863
  188DPPC   O33 9383   7.828   2.690   1.980
  188DPPC   C34 9384   7.723   2.655   2.059
  188DPPC   O35 9385   7.639   2.576   2.015
  188DPPC   C36 9386   7.693   2.739   2.183
  188DPPC   C37 9387   7.817   2.764   2.268
  188DPPC   C38 9388   7.820   2.867   2.382
  188DPPC   C39 9389   7.713   2.821   2.482
  188DPPC   C40 9390   7.719   2.922   2.596
  188DPPC   C41 9391   7.620   2.894   2.710
  188DPPC   C42 9392   7.678   2.929   2.847
  188DPPC   C43 9393   7.586   2.892   2.964
  188DPPC   C44 9394   7.675   2.915   3.086
  188DPPC   C45 9395   7.634   2.842   3.214
  188DPPC   C46 9396   7.739   2.872   3.321
  188DPPC   C47 9397   7.720   2.800   3.454
  188DPPC   C48 9398   7.851   2.809   3.531
  188DPPC   C49 9399   7.836   2.748   3.671
  188DPPC   C50 9400   7.951   2.776   3.767
  189DPPC    C1 9401   9.015   3.657   1.374
  189DPPC    C2 9402   8.894   3.467   1.464
  189DPPC    C3 9403   8.934   3.667   1.597
  189DPPC    N4 9404   8.906   3.614   1.463
  189DPPC    C5 9405   8.773   3.653   1.416
  189DPPC    C6 9406   8.725   3.797   1.436
  189DPPC    O7 9407   8.826   3.891   1.398
  189DPPC    P8 9408   8.785   4.046   1.387
  189DPPC    O9 9409   8.640   4.046   1.358
  189DPPC   O10 9410   8.882   4.114   1.298
  189DPPC   O11 9411   8.806   4.079   1.543
  189DPPC   C12 9412   8.947   4.071   1.567
  189DPPC   C13 9413   9.004   4.147   1.686
  189DPPC   O14 9414   8.977   4.096   1.817
  189DPPC   C15 9415   9.037   3.981   1.859
  189DPPC   O16 9416   9.092   3.908   1.777
  189DPPC   C17 9417   9.001   3.939   2.001
  189DPPC   C18 9418   9.042   4.045   2.104
  189DPPC   C19 9419   8.953   4.035   2.228
  189DPPC   C20 9420   8.808   4.068   2.194
  189DPPC   C21 9421   8.740   4.123   2.320
  189DPPC   C22 9422   8.591   4.147   2.297
  189DPPC   C23 9423   8.541   4.182   2.438
  189DPPC   C24 9424   8.400   4.240   2.424
  189DPPC   C25 9425   8.350   4.301   2.555
  189DPPC   C26 9426   8.348   4.215   2.682
  189DPPC   C27 9427   8.296   4.286   2.807
  189DPPC   C28 9428   8.275   4.197   2.930
  189DPPC   C29 9429   8.405   4.180   3.007
  189DPPC   C30 9430   8.403   4.214   3.156
  189DPPC   C31 9431   8.298   4.131   3.232
  189DPPC   C32 9432   8.980   4.297   1.665
  189DPPC   O33 9433   9.065   4.383   1.741
  189DPPC   C34 9434   9.082   4.511   1.700
  189DPPC   O35 9435   9.053   4.547   1.585
  189DPPC   C36 9436   9.163   4.603   1.792
  189DPPC   C37 9437   9.071   4.675   1.891
  189DPPC   C38 9438   9.027   4.594   2.014
  189DPPC   C39 9439   8.904   4.663   2.072
  189DPPC   C40 9440   8.881   4.634   2.220
  189DPPC   C41 9441   8.761   4.704   2.285
  189DPPC   C42 9442   8.790   4.697   2.434
  189DPPC   C43 9443   8.771   4.553   2.480
  189DPPC   C44 9444   8.748   4.552   2.631
  189DPPC   C45 9445   8.720   4.415   2.694
  189DPPC   C46 9446   8.673   4.449   2.836
  189DPPC   C47 9447   8.777   4.543   2.898
  189DPPC   C48 9448   8.714   4.601   3.024
  189DPPC   C49 9449   8.647   4.491   3.106
  189DPPC   C50 9450   8.585   4.561   3.227
  190DPPC    C1 9451   5.095   7.117   1.791
  190DPPC    C2 9452   4.862   7.184   1.750
  190DPPC    C3 9453   4.965   7.220   1.964
  190DPPC    N4 9454   4.988   7.213   1.819
  190DPPC    C5 9455   5.026   7.353   1.790
  190DPPC    C6 9456   5.157   7.404   1.850
  190DPPC    O7 9457   5.135   7.498   1.955
  190DPPC    P8 9458   5.281   7.552   1.994
  190DPPC    O9 9459   5.240   7.641   2.104
  190DPPC   O10 9460   5.358   7.590   1.873
  190DPPC   O11 9461   5.322   7.409   2.054
  190DPPC   C12 9462   5.261   7.397   2.182
  190DPPC   C13 9463   5.244   7.248   2.213
  190DPPC   O14 9464   5.127   7.202   2.283
  190DPPC   C15 9465   5.098   7.071   2.264
  190DPPC   O16 9466   5.148   6.993   2.183
  190DPPC   C17 9467   4.984   7.027   2.356
  190DPPC   C18 9468   5.042   6.934   2.462
  190DPPC   C19 9469   5.156   7.002   2.538
  190DPPC   C20 9470   5.241   6.886   2.588
  190DPPC   C21 9471   5.393   6.907   2.590
  190DPPC   C22 9472   5.452   6.828   2.707
  190DPPC   C23 9473   5.600   6.863   2.729
  190DPPC   C24 9474   5.635   6.819   2.871
  190DPPC   C25 9475   5.630   6.666   2.880
  190DPPC   C26 9476   5.728   6.589   2.791
  190DPPC   C27 9477   5.683   6.443   2.795
  190DPPC   C28 9478   5.714   6.381   2.931
  190DPPC   C29 9479   5.700   6.228   2.933
  190DPPC   C30 9480   5.760   6.179   3.065
  190DPPC   C31 9481   5.719   6.036   3.098
  190DPPC   C32 9482   5.381   7.212   2.270
  190DPPC   O33 9483   5.424   7.280   2.389
  190DPPC   C34 9484   5.556   7.245   2.395
  190DPPC   O35 9485   5.585   7.134   2.353
  190DPPC   C36 9486   5.652   7.356   2.439
  190DPPC   C37 9487   5.649   7.372   2.591
  190DPPC   C38 9488   5.717   7.502   2.634
  190DPPC   C39 9489   5.868   7.483   2.649
  190DPPC   C40 9490   5.932   7.600   2.724
  190DPPC   C41 9491   5.908   7.729   2.646
  190DPPC   C42 9492   5.953   7.853   2.724
  190DPPC   C43 9493   5.868   7.865   2.851
  190DPPC   C44 9494   5.919   7.971   2.949
  190DPPC   C45 9495   5.837   7.990   3.077
  190DPPC   C46 9496   5.903   8.090   3.172
  190DPPC   C47 9497   5.826   8.115   3.302
  190DPPC   C48 9498   5.905   8.205   3.397
  190DPPC   C49 9499   5.829   8.219   3.529
  190DPPC   C50 9500   5.906   8.265   3.653
  191DPPC    C1 9501   1.046   2.206   1.415
  191DPPC    C2 9502   1.231   2.086   1.309
  191DPPC    C3 9503   1.189   2.067   1.547
  191DPPC    N4 9504   1.128   2.084   1.414
  191DPPC    C5 9505   1.048   1.969   1.369
  191DPPC    C6 9506   0.955   1.899   1.468
  191DPPC    O7 9507   0.857   1.980   1.533
  191DPPC    P8 9508   0.762   1.891   1.628
  191DPPC    O9 9509   0.866   1.811   1.698
  191DPPC   O10 9510   0.682   1.841   1.515
  191DPPC   O11 9511   0.696   2.023   1.691
  191DPPC   C12 9512   0.757   2.027   1.820
  191DPPC   C13 9513   0.771   2.169   1.874
  191DPPC   O14 9514   0.852   2.195   1.990
  191DPPC   C15 9515   0.980   2.152   2.007
  191DPPC   O16 9516   1.051   2.135   1.908
  191DPPC   C17 9517   1.040   2.164   2.148
  191DPPC   C18 9518   1.050   2.026   2.212
  191DPPC   C19 9519   1.102   2.051   2.354
  191DPPC   C20 9520   1.232   2.132   2.361
  191DPPC   C21 9521   1.287   2.090   2.498
  191DPPC   C22 9522   1.346   2.207   2.575
  191DPPC   C23 9523   1.356   2.170   2.723
  191DPPC   C24 9524   1.416   2.283   2.806
  191DPPC   C25 9525   1.379   2.257   2.952
  191DPPC   C26 9526   1.228   2.242   2.975
  191DPPC   C27 9527   1.197   2.191   3.116
  191DPPC   C28 9528   1.282   2.067   3.145
  191DPPC   C29 9529   1.236   2.014   3.281
  191DPPC   C30 9530   1.300   1.882   3.327
  191DPPC   C31 9531   1.246   1.833   3.461
  191DPPC   C32 9532   0.624   2.208   1.893
  191DPPC   O33 9533   0.548   2.127   1.983
  191DPPC   C34 9534   0.412   2.130   1.976
  191DPPC   O35 9535   0.351   2.198   1.894
  191DPPC   C36 9536   0.344   2.018   2.055
  191DPPC   C37 9537   0.268   2.061   2.180
  191DPPC   C38 9538   0.230   1.933   2.255
  191DPPC   C39 9539   0.190   1.971   2.398
  191DPPC   C40 9540   0.064   2.057   2.395
  191DPPC   C41 9541   0.017   2.054   2.540
  191DPPC   C42 9542  -0.003   1.906   2.571
  191DPPC   C43 9543  -0.024   1.882   2.721
  191DPPC   C44 9544  -0.136   1.965   2.783
  191DPPC   C45 9545  -0.170   1.874   2.901
  191DPPC   C46 9546  -0.285   1.943   2.975
  191DPPC   C47 9547  -0.255   2.063   3.065
  191DPPC   C48 9548  -0.382   2.109   3.137
  191DPPC   C49 9549  -0.434   1.984   3.208
  191DPPC   C50 9550  -0.564   1.983   3.288
  192DPPC    C1 9551   4.861   1.008   1.801
  192DPPC    C2 9552   4.851   0.769   1.808
  192DPPC    C3 9553   5.063   0.877   1.785
  192DPPC    N4 9554   4.930   0.887   1.847
  192DPPC    C5 9555   4.944   0.873   1.993
  192DPPC    C6 9556   4.997   0.977   2.091
  192DPPC    O7 9557   4.931   1.103   2.079
  192DPPC    P8 9558   5.017   1.211   2.162
  192DPPC    O9 9559   4.955   1.340   2.126
  192DPPC   O10 9560   5.157   1.178   2.128
  192DPPC   O11 9561   4.980   1.186   2.316
  192DPPC   C12 9562   4.864   1.251   2.368
  192DPPC   C13 9563   4.870   1.243   2.520
  192DPPC   O14 9564   4.749   1.288   2.582
  192DPPC   C15 9565   4.642   1.205   2.568
  192DPPC   O16 9566   4.641   1.101   2.501
  192DPPC   C17 9567   4.510   1.258   2.625
  192DPPC   C18 9568   4.526   1.382   2.713
  192DPPC   C19 9569   4.396   1.434   2.774
  192DPPC   C20 9570   4.346   1.355   2.895
  192DPPC   C21 9571   4.226   1.421   2.964
  192DPPC   C22 9572   4.172   1.324   3.069
  192DPPC   C23 9573   4.255   1.314   3.197
  192DPPC   C24 9574   4.191   1.223   3.301
  192DPPC   C25 9575   4.289   1.204   3.416
  192DPPC   C26 9576   4.424   1.176   3.348
  192DPPC   C27 9577   4.500   1.089   3.449
  192DPPC   C28 9578   4.596   1.008   3.362
  192DPPC   C29 9579   4.672   0.908   3.450
  192DPPC   C30 9580   4.762   0.825   3.357
  192DPPC   C31 9581   4.897   0.888   3.324
  192DPPC   C32 9582   5.000   1.309   2.568
  192DPPC   O33 9583   5.039   1.263   2.697
  192DPPC   C34 9584   5.167   1.290   2.735
  192DPPC   O35 9585   5.259   1.280   2.654
  192DPPC   C36 9586   5.183   1.261   2.885
  192DPPC   C37 9587   5.241   1.120   2.894
  192DPPC   C38 9588   5.256   1.110   3.046
  192DPPC   C39 9589   5.221   0.968   3.091
  192DPPC   C40 9590   5.289   0.947   3.227
  192DPPC   C41 9591   5.325   0.803   3.261
  192DPPC   C42 9592   5.382   0.796   3.403
  192DPPC   C43 9593   5.421   0.655   3.447
  192DPPC   C44 9594   5.460   0.635   3.594
  192DPPC   C45 9595   5.447   0.489   3.637
  192DPPC   C46 9596   5.525   0.407   3.533
  192DPPC   C47 9597   5.524   0.261   3.578
  192DPPC   C48 9598   5.604   0.179   3.478
  192DPPC   C49 9599   5.638   0.039   3.529
  192DPPC   C50 9600   5.517  -0.037   3.583
  193DPPC    C1 9601   5.484   5.665   6.162
  193DPPC    C2 9602   5.349   5.477   6.157
  193DPPC    C3 9603   5.307   5.666   6.023
  193DPPC    N4 9604   5.413   5.576   6.070
  193DPPC    C5 9605   5.506   5.517   5.972
  193DPPC    C6 9606   5.459   5.391   5.900
  193DPPC    O7 9607   5.527   5.373   5.775
  193DPPC    P8 9608   5.496   5.217   5.746
  193DPPC    O9 9609   5.462   5.153   5.875
  193DPPC   O10 9610   5.603   5.158   5.663
  193DPPC   O11 9611   5.368   5.229   5.649
  193DPPC   C12 9612   5.392   5.192   5.513
  193DPPC   C13 9613   5.279   5.238   5.420
  193DPPC   O14 9614   5.270   5.143   5.313
  193DPPC   C15 9615   5.185   5.037   5.326
  193DPPC   O16 9616   5.096   5.044   5.410
  193DPPC   C17 9617   5.181   4.945   5.204
  193DPPC   C18 9618   5.321   4.929   5.145
  193DPPC   C19 9619   5.315   4.814   5.046
  193DPPC   C20 9620   5.415   4.835   4.932
  193DPPC   C21 9621   5.413   4.710   4.843
  193DPPC   C22 9622   5.529   4.722   4.744
  193DPPC   C23 9623   5.531   4.594   4.659
  193DPPC   C24 9624   5.616   4.639   4.540
  193DPPC   C25 9625   5.630   4.527   4.436
  193DPPC   C26 9626   5.690   4.591   4.310
  193DPPC   C27 9627   5.833   4.638   4.337
  193DPPC   C28 9628   5.886   4.721   4.219
  193DPPC   C29 9629   5.890   4.639   4.090
  193DPPC   C30 9630   5.962   4.723   3.985
  193DPPC   C31 9631   5.870   4.826   3.919
  193DPPC   C32 9632   5.300   5.384   5.380
  193DPPC   O33 9633   5.416   5.409   5.300
  193DPPC   C34 9634   5.369   5.432   5.175
  193DPPC   O35 9635   5.260   5.483   5.153
  193DPPC   C36 9636   5.481   5.424   5.070
  193DPPC   C37 9637   5.520   5.277   5.053
  193DPPC   C38 9638   5.662   5.267   4.996
  193DPPC   C39 9639   5.667   5.118   4.965
  193DPPC   C40 9640   5.805   5.070   4.918
  193DPPC   C41 9641   5.817   4.917   4.911
  193DPPC   C42 9642   5.946   4.869   4.845
  193DPPC   C43 9643   5.981   4.725   4.883
  193DPPC   C44 9644   6.099   4.690   4.792
  193DPPC   C45 9645   6.066   4.719   4.645
  193DPPC   C46 9646   6.176   4.668   4.551
  193DPPC   C47 9647   6.193   4.516   4.564
  193DPPC   C48 9648   6.308   4.467   4.477
  193DPPC   C49 9649   6.268   4.475   4.330
  193DPPC   C50 9650   6.379   4.401   4.254
  194DPPC    C1 9651   8.056   5.452   1.034
  194DPPC    C2 9652   7.893   5.626   1.073
  194DPPC    C3 9653   7.880   5.478   0.884
  194DPPC    N4 9654   7.914   5.488   1.027
  194DPPC    C5 9655   7.813   5.404   1.093
  194DPPC    C6 9656   7.822   5.251   1.095
  194DPPC    O7 9657   7.912   5.208   1.197
  194DPPC    P8 9658   7.909   5.048   1.213
  194DPPC    O9 9659   7.935   5.005   1.073
  194DPPC   O10 9660   7.776   5.020   1.272
  194DPPC   O11 9661   8.031   5.019   1.314
  194DPPC   C12 9662   7.999   5.074   1.442
  194DPPC   C13 9663   8.076   5.197   1.491
  194DPPC   O14 9664   8.167   5.166   1.597
  194DPPC   C15 9665   8.251   5.251   1.661
  194DPPC   O16 9666   8.264   5.365   1.617
  194DPPC   C17 9667   8.342   5.204   1.775
  194DPPC   C18 9668   8.287   5.097   1.869
  194DPPC   C19 9669   8.400   5.000   1.904
  194DPPC   C20 9670   8.457   4.984   2.045
  194DPPC   C21 9671   8.350   4.913   2.127
  194DPPC   C22 9672   8.391   4.896   2.273
  194DPPC   C23 9673   8.326   4.773   2.337
  194DPPC   C24 9674   8.294   4.810   2.481
  194DPPC   C25 9675   8.212   4.699   2.546
  194DPPC   C26 9676   8.215   4.727   2.697
  194DPPC   C27 9677   8.354   4.713   2.759
  194DPPC   C28 9678   8.334   4.716   2.910
  194DPPC   C29 9679   8.243   4.823   2.972
  194DPPC   C30 9680   8.260   4.834   3.124
  194DPPC   C31 9681   8.178   4.955   3.170
  194DPPC   C32 9682   7.965   5.290   1.539
  194DPPC   O33 9683   7.881   5.250   1.648
  194DPPC   C34 9684   7.768   5.323   1.665
  194DPPC   O35 9685   7.749   5.417   1.587
  194DPPC   C36 9686   7.686   5.287   1.788
  194DPPC   C37 9687   7.550   5.356   1.790
  194DPPC   C38 9688   7.476   5.335   1.922
  194DPPC   C39 9689   7.347   5.417   1.925
  194DPPC   C40 9690   7.252   5.392   2.042
  194DPPC   C41 9691   7.187   5.253   2.039
  194DPPC   C42 9692   7.109   5.235   2.169
  194DPPC   C43 9693   7.203   5.242   2.290
  194DPPC   C44 9694   7.130   5.246   2.425
  194DPPC   C45 9695   7.241   5.280   2.524
  194DPPC   C46 9696   7.194   5.254   2.667
  194DPPC   C47 9697   7.293   5.289   2.778
  194DPPC   C48 9698   7.228   5.253   2.911
  194DPPC   C49 9699   7.329   5.281   3.022
  194DPPC   C50 9700   7.454   5.196   3.000
  195DPPC    C1 9701   2.562   3.494   5.570
  195DPPC    C2 9702   2.352   3.555   5.515
  195DPPC    C3 9703   2.484   3.508   5.334
  195DPPC    N4 9704   2.458   3.462   5.471
  195DPPC    C5 9705   2.402   3.327   5.486
  195DPPC    C6 9706   2.463   3.208   5.412
  195DPPC    O7 9707   2.588   3.165   5.467
  195DPPC    P8 9708   2.632   3.019   5.415
  195DPPC    O9 9709   2.597   3.020   5.271
  195DPPC   O10 9710   2.578   2.921   5.513
  195DPPC   O11 9711   2.792   3.031   5.422
  195DPPC   C12 9712   2.823   3.138   5.333
  195DPPC   C13 9713   2.895   3.267   5.376
  195DPPC   O14 9714   2.875   3.365   5.273
  195DPPC   C15 9715   2.906   3.497   5.288
  195DPPC   O16 9716   2.888   3.542   5.401
  195DPPC   C17 9717   2.904   3.586   5.164
  195DPPC   C18 9718   3.011   3.544   5.064
  195DPPC   C19 9719   2.997   3.635   4.942
  195DPPC   C20 9720   3.061   3.573   4.818
  195DPPC   C21 9721   2.979   3.449   4.782
  195DPPC   C22 9722   3.010   3.393   4.644
  195DPPC   C23 9723   2.962   3.503   4.549
  195DPPC   C24 9724   2.992   3.483   4.400
  195DPPC   C25 9725   2.946   3.349   4.342
  195DPPC   C26 9726   2.981   3.330   4.194
  195DPPC   C27 9727   3.132   3.346   4.177
  195DPPC   C28 9728   3.154   3.354   4.026
  195DPPC   C29 9729   3.124   3.216   3.966
  195DPPC   C30 9730   3.218   3.121   4.040
  195DPPC   C31 9731   3.210   2.978   3.986
  195DPPC   C32 9732   3.041   3.229   5.400
  195DPPC   O33 9733   3.094   3.137   5.304
  195DPPC   C34 9734   3.225   3.105   5.322
  195DPPC   O35 9735   3.284   3.152   5.418
  195DPPC   C36 9736   3.292   3.007   5.226
  195DPPC   C37 9737   3.359   3.093   5.119
  195DPPC   C38 9738   3.377   3.011   4.990
  195DPPC   C39 9739   3.242   3.000   4.919
  195DPPC   C40 9740   3.276   2.944   4.780
  195DPPC   C41 9741   3.171   2.977   4.673
  195DPPC   C42 9742   3.233   2.935   4.540
  195DPPC   C43 9743   3.139   2.952   4.420
  195DPPC   C44 9744   2.997   2.898   4.433
  195DPPC   C45 9745   2.920   2.916   4.302
  195DPPC   C46 9746   2.772   2.879   4.317
  195DPPC   C47 9747   2.673   2.933   4.214
  195DPPC   C48 9748   2.673   3.085   4.196
  195DPPC   C49 9749   2.640   3.138   4.057
  195DPPC   C50 9750   2.642   3.289   4.082
  196DPPC    C1 9751   0.696   0.069   1.621
  196DPPC    C2 9752   0.557   0.223   1.522
  196DPPC    C3 9753   0.526   0.179   1.757
  196DPPC    N4 9754   0.625   0.194   1.649
  196DPPC    C5 9755   0.728   0.298   1.663
  196DPPC    C6 9756   0.689   0.446   1.669
  196DPPC    O7 9757   0.576   0.489   1.746
  196DPPC    P8 9758   0.574   0.650   1.741
  196DPPC    O9 9759   0.439   0.701   1.708
  196DPPC   O10 9760   0.689   0.697   1.659
  196DPPC   O11 9761   0.636   0.689   1.884
  196DPPC   C12 9762   0.523   0.674   1.969
  196DPPC   C13 9763   0.558   0.648   2.116
  196DPPC   O14 9764   0.446   0.604   2.194
  196DPPC   C15 9765   0.400   0.478   2.172
  196DPPC   O16 9766   0.465   0.396   2.108
  196DPPC   C17 9767   0.264   0.433   2.227
  196DPPC   C18 9768   0.274   0.414   2.379
  196DPPC   C19 9769   0.151   0.362   2.454
  196DPPC   C20 9770   0.194   0.359   2.601
  196DPPC   C21 9771   0.097   0.297   2.701
  196DPPC   C22 9772   0.198   0.230   2.795
  196DPPC   C23 9773   0.115   0.186   2.915
  196DPPC   C24 9774   0.207   0.132   3.024
  196DPPC   C25 9775   0.114   0.072   3.130
  196DPPC   C26 9776   0.183  -0.026   3.225
  196DPPC   C27 9777   0.216  -0.162   3.162
  196DPPC   C28 9778   0.269  -0.260   3.267
  196DPPC   C29 9779   0.315  -0.395   3.210
  196DPPC   C30 9780   0.330  -0.525   3.289
  196DPPC   C31 9781   0.361  -0.642   3.196
  196DPPC   C32 9782   0.644   0.766   2.161
  196DPPC   O33 9783   0.580   0.890   2.128
  196DPPC   C34 9784   0.648   1.008   2.126
  196DPPC   O35 9785   0.765   1.000   2.161
  196DPPC   C36 9786   0.568   1.133   2.090
  196DPPC   C37 9787   0.497   1.211   2.201
  196DPPC   C38 9788   0.400   1.314   2.144
  196DPPC   C39 9789   0.322   1.375   2.261
  196DPPC   C40 9790   0.252   1.268   2.344
  196DPPC   C41 9791   0.175   1.335   2.458
  196DPPC   C42 9792   0.110   1.229   2.547
  196DPPC   C43 9793   0.037   1.298   2.663
  196DPPC   C44 9794  -0.020   1.193   2.759
  196DPPC   C45 9795  -0.046   1.242   2.902
  196DPPC   C46 9796  -0.120   1.142   2.991
  196DPPC   C47 9797  -0.166   1.205   3.123
  196DPPC   C48 9798  -0.230   1.101   3.215
  196DPPC   C49 9799  -0.131   1.053   3.321
  196DPPC   C50 9800  -0.199   0.982   3.438
  197DPPC    C1 9801   8.881   1.989   5.772
  197DPPC    C2 9802   8.930   1.753   5.788
  197DPPC    C3 9803   8.770   1.839   5.638
  197DPPC    N4 9804   8.902   1.865   5.696
  197DPPC    C5 9805   9.016   1.880   5.605
  197DPPC    C6 9806   9.056   1.761   5.516
  197DPPC    O7 9807   8.956   1.706   5.430
  197DPPC    P8 9808   9.027   1.612   5.320
  197DPPC    O9 9809   8.928   1.521   5.257
  197DPPC   O10 9810   9.161   1.570   5.368
  197DPPC   O11 9811   9.056   1.732   5.218
  197DPPC   C12 9812   8.930   1.780   5.170
  197DPPC   C13 9813   8.931   1.925   5.119
  197DPPC   O14 9814   8.804   1.981   5.084
  197DPPC   C15 9815   8.786   2.114   5.107
  197DPPC   O16 9816   8.839   2.163   5.206
  197DPPC   C17 9817   8.674   2.184   5.031
  197DPPC   C18 9818   8.723   2.218   4.890
  197DPPC   C19 9819   8.598   2.234   4.803
  197DPPC   C20 9820   8.642   2.289   4.668
  197DPPC   C21 9821   8.524   2.320   4.576
  197DPPC   C22 9822   8.565   2.343   4.430
  197DPPC   C23 9823   8.440   2.383   4.352
  197DPPC   C24 9824   8.346   2.469   4.437
  197DPPC   C25 9825   8.233   2.516   4.345
  197DPPC   C26 9826   8.200   2.390   4.263
  197DPPC   C27 9827   8.082   2.434   4.176
  197DPPC   C28 9828   8.035   2.306   4.107
  197DPPC   C29 9829   7.909   2.349   4.032
  197DPPC   C30 9830   7.837   2.222   3.985
  197DPPC   C31 9831   7.918   2.124   3.900
  197DPPC   C32 9832   9.030   1.914   5.003
  197DPPC   O33 9833   9.065   2.035   4.936
  197DPPC   C34 9834   9.163   2.030   4.841
  197DPPC   O35 9835   9.246   1.939   4.837
  197DPPC   C36 9836   9.179   2.154   4.754
  197DPPC   C37 9837   9.057   2.171   4.662
  197DPPC   C38 9838   9.066   2.277   4.552
  197DPPC   C39 9839   8.951   2.285   4.452
  197DPPC   C40 9840   8.982   2.424   4.397
  197DPPC   C41 9841   8.952   2.538   4.494
  197DPPC   C42 9842   9.001   2.675   4.446
  197DPPC   C43 9843   8.965   2.785   4.545
  197DPPC   C44 9844   9.045   2.914   4.520
  197DPPC   C45 9845   9.018   3.016   4.630
  197DPPC   C46 9846   9.132   3.117   4.647
  197DPPC   C47 9847   9.067   3.216   4.743
  197DPPC   C48 9848   9.158   3.332   4.787
  197DPPC   C49 9849   9.099   3.415   4.901
  197DPPC   C50 9850   9.081   3.331   5.027
  198DPPC    C1 9851   4.009   4.782   5.358
  198DPPC    C2 9852   3.799   4.719   5.438
  198DPPC    C3 9853   3.983   4.710   5.586
  198DPPC    N4 9854   3.923   4.788   5.477
  198DPPC    C5 9855   3.893   4.925   5.522
  198DPPC    C6 9856   3.996   5.007   5.601
  198DPPC    O7 9857   4.097   5.059   5.515
  198DPPC    P8 9858   4.234   5.053   5.601
  198DPPC    O9 9859   4.259   4.908   5.580
  198DPPC   O10 9860   4.218   5.119   5.732
  198DPPC   O11 9861   4.320   5.138   5.495
  198DPPC   C12 9862   4.372   5.049   5.396
  198DPPC   C13 9863   4.447   5.110   5.277
  198DPPC   O14 9864   4.570   5.182   5.289
  198DPPC   C15 9865   4.677   5.099   5.306
  198DPPC   O16 9866   4.672   4.986   5.353
  198DPPC   C17 9867   4.818   5.152   5.280
  198DPPC   C18 9868   4.820   5.224   5.145
  198DPPC   C19 9869   4.949   5.273   5.079
  198DPPC   C20 9870   4.925   5.321   4.935
  198DPPC   C21 9871   5.060   5.350   4.870
  198DPPC   C22 9872   5.135   5.221   4.837
  198DPPC   C23 9873   5.249   5.263   4.744
  198DPPC   C24 9874   5.327   5.152   4.674
  198DPPC   C25 9875   5.471   5.192   4.641
  198DPPC   C26 9876   5.537   5.085   4.554
  198DPPC   C27 9877   5.682   5.114   4.516
  198DPPC   C28 9878   5.715   5.037   4.388
  198DPPC   C29 9879   5.857   5.074   4.347
  198DPPC   C30 9880   5.951   5.041   4.463
  198DPPC   C31 9881   6.104   5.040   4.454
  198DPPC   C32 9882   4.334   5.180   5.201
  198DPPC   O33 9883   4.230   5.095   5.154
  198DPPC   C34 9884   4.126   5.158   5.092
  198DPPC   O35 9885   4.129   5.278   5.065
  198DPPC   C36 9886   3.999   5.081   5.058
  198DPPC   C37 9887   4.057   4.948   5.009
  198DPPC   C38 9888   4.117   4.948   4.868
  198DPPC   C39 9889   4.179   4.811   4.842
  198DPPC   C40 9890   4.238   4.811   4.701
  198DPPC   C41 9891   4.295   4.674   4.666
  198DPPC   C42 9892   4.403   4.690   4.559
  198DPPC   C43 9893   4.500   4.573   4.546
  198DPPC   C44 9894   4.601   4.597   4.434
  198DPPC   C45 9895   4.719   4.500   4.423
  198DPPC   C46 9896   4.819   4.533   4.312
  198DPPC   C47 9897   4.936   4.435   4.303
  198DPPC   C48 9898   4.897   4.290   4.276
  198DPPC   C49 9899   5.018   4.204   4.239
  198DPPC   C50 9900   4.967   4.068   4.191
  199DPPC    C1 9901   6.997   6.245   5.400
  199DPPC    C2 9902   6.950   6.468   5.335
  199DPPC    C3 9903   6.863   6.294   5.212
  199DPPC    N4 9904   6.891   6.334   5.351
  199DPPC    C5 9905   6.774   6.324   5.440
  199DPPC    C6 9906   6.665   6.430   5.429
  199DPPC    O7 9907   6.581   6.405   5.316
  199DPPC    P8 9908   6.459   6.510   5.313
  199DPPC    O9 9909   6.532   6.639   5.301
  199DPPC   O10 9910   6.366   6.472   5.421
  199DPPC   O11 9911   6.392   6.455   5.178
  199DPPC   C12 9912   6.491   6.398   5.091
  199DPPC   C13 9913   6.459   6.421   4.943
  199DPPC   O14 9914   6.548   6.361   4.848
  199DPPC   C15 9915   6.532   6.230   4.816
  199DPPC   O16 9916   6.462   6.162   4.891
  199DPPC   C17 9917   6.599   6.170   4.693
  199DPPC   C18 9918   6.555   6.221   4.555
  199DPPC   C19 9919   6.642   6.146   4.454
  199DPPC   C20 9920   6.610   6.211   4.320
  199DPPC   C21 9921   6.692   6.128   4.221
  199DPPC   C22 9922   6.687   6.188   4.081
  199DPPC   C23 9923   6.786   6.304   4.072
  199DPPC   C24 9924   6.780   6.352   3.927
  199DPPC   C25 9925   6.868   6.278   3.828
  199DPPC   C26 9926   6.867   6.359   3.698
  199DPPC   C27 9927   6.922   6.500   3.722
  199DPPC   C28 9928   6.922   6.581   3.592
  199DPPC   C29 9929   7.005   6.708   3.609
  199DPPC   C30 9930   7.035   6.789   3.482
  199DPPC   C31 9931   7.109   6.917   3.519
  199DPPC   C32 9932   6.444   6.573   4.938
  199DPPC   O33 9933   6.549   6.660   4.982
  199DPPC   C34 9934   6.515   6.792   4.975
  199DPPC   O35 9935   6.401   6.825   4.946
  199DPPC   C36 9936   6.620   6.889   5.028
  199DPPC   C37 9937   6.620   7.019   4.947
  199DPPC   C38 9938   6.535   7.130   5.008
  199DPPC   C39 9939   6.507   7.249   4.915
  199DPPC   C40 9940   6.440   7.201   4.787
  199DPPC   C41 9941   6.421   7.323   4.697
  199DPPC   C42 9942   6.559   7.379   4.661
  199DPPC   C43 9943   6.635   7.293   4.560
  199DPPC   C44 9944   6.767   7.364   4.531
  199DPPC   C45 9945   6.755   7.504   4.470
  199DPPC   C46 9946   6.891   7.546   4.415
  199DPPC   C47 9947   6.949   7.447   4.313
  199DPPC   C48 9948   7.089   7.489   4.266
  199DPPC   C49 9949   7.179   7.500   4.389
  199DPPC   C50 9950   7.324   7.538   4.355
  200DPPC    C1 9951   2.695   7.506   5.125
  200DPPC    C2 9952   2.777   7.374   5.318
  200DPPC    C3 9953   2.827   7.594   5.282
  200DPPC    N4 9954   2.716   7.499   5.270
  200DPPC    C5 9955   2.612   7.562   5.354
  200DPPC    C6 9956   2.471   7.506   5.341
  200DPPC    O7 9957   2.450   7.366   5.364
  200DPPC    P8 9958   2.300   7.314   5.342
  200DPPC    O9 9959   2.204   7.421   5.376
  200DPPC   O10 9960   2.307   7.190   5.422
  200DPPC   O11 9961   2.308   7.297   5.182
  200DPPC   C12 9962   2.389   7.180   5.164
  200DPPC   C13 9963   2.370   7.121   5.024
  200DPPC   O14 9964   2.452   7.168   4.915
  200DPPC   C15 9965   2.587   7.152   4.916
  200DPPC   O16 9966   2.657   7.146   5.017
  200DPPC   C17 9967   2.638   7.177   4.774
  200DPPC   C18 9968   2.734   7.065   4.733
  200DPPC   C19 9969   2.783   7.104   4.593
  200DPPC   C20 9970   2.892   7.008   4.546
  200DPPC   C21 9971   2.943   7.029   4.404
  200DPPC   C22 9972   2.837   7.016   4.293
  200DPPC   C23 9973   2.912   7.022   4.160
  200DPPC   C24 9974   2.827   7.019   4.032
  200DPPC   C25 9975   2.903   7.032   3.901
  200DPPC   C26 9976   2.978   7.164   3.883
  200DPPC   C27 9977   3.053   7.174   3.749
  200DPPC   C28 9978   3.152   7.290   3.742
  200DPPC   C29 9979   3.219   7.291   3.605
  200DPPC   C30 9980   3.300   7.162   3.587
  200DPPC   C31 9981   3.398   7.151   3.470
  200DPPC   C32 9982   2.218   7.109   5.016
  200DPPC   O33 9983   2.170   7.028   4.909
  200DPPC   C34 9984   2.035   7.016   4.917
  200DPPC   O35 9985   1.968   7.032   5.019
  200DPPC   C36 9986   1.980   6.943   4.794
  200DPPC   C37 9987   1.940   7.028   4.674
  200DPPC   C38 9988   1.903   6.938   4.555
  200DPPC   C39 9989   2.031   6.884   4.491
  200DPPC   C40 9990   2.012   6.772   4.388
  200DPPC   C41 9991   2.140   6.722   4.321
  200DPPC   C42 9992   2.095   6.615   4.222
  200DPPC   C43 9993   1.976   6.669   4.142
  200DPPC   C44 9994   1.904   6.558   4.066
  200DPPC   C45 9995   1.756   6.593   4.045
  200DPPC   C46 9996   1.727   6.728   3.979
  200DPPC   C47 9997   1.583   6.741   3.928
  200DPPC   C48 9998   1.552   6.888   3.902
  200DPPC   C49 9999   1.410   6.924   3.857
  200DPPC   C5010000   1.391   7.075   3.839
  201DPPC    C110001   7.846   1.443   5.752
  201DPPC    C210002   7.856   1.510   5.985
  201DPPC    C310003   7.880   1.286   5.931
  201DPPC    N410004   7.911   1.421   5.882
  201DPPC    C510005   8.057   1.433   5.895
  201DPPC    C610006   8.131   1.544   5.819
  201DPPC    O710007   8.086   1.668   5.875
  201DPPC    P810008   8.139   1.791   5.786
  201DPPC    O910009   8.281   1.758   5.759
  201DPPC   O1010010   8.105   1.928   5.830
  201DPPC   O1110011   8.052   1.756   5.655
  201DPPC   C1210012   8.122   1.815   5.545
  201DPPC   C1310013   8.047   1.842   5.414
  201DPPC   O1410014   7.948   1.946   5.411
  201DPPC   C1510015   7.987   2.076   5.424
  201DPPC   O1610016   8.079   2.105   5.499
  201DPPC   C1710017   7.895   2.176   5.354
  201DPPC   C1810018   7.917   2.175   5.202
  201DPPC   C1910019   7.835   2.287   5.137
  201DPPC   C2010020   7.687   2.251   5.152
  201DPPC   C2110021   7.597   2.357   5.088
  201DPPC   C2210022   7.453   2.311   5.067
  201DPPC   C2310023   7.372   2.423   5.003
  201DPPC   C2410024   7.410   2.437   4.855
  201DPPC   C2510025   7.318   2.540   4.789
  201DPPC   C2610026   7.341   2.541   4.638
  201DPPC   C2710027   7.225   2.604   4.560
  201DPPC   C2810028   7.228   2.564   4.412
  201DPPC   C2910029   7.102   2.585   4.328
  201DPPC   C3010030   7.110   2.528   4.186
  201DPPC   C3110031   6.993   2.431   4.169
  201DPPC   C3210032   7.993   1.702   5.382
  201DPPC   O3310033   8.103   1.613   5.363
  201DPPC   C3410034   8.069   1.484   5.386
  201DPPC   O3510035   7.955   1.457   5.425
  201DPPC   C3610036   8.177   1.380   5.357
  201DPPC   C3710037   8.233   1.396   5.215
  201DPPC   C3810038   8.313   1.275   5.167
  201DPPC   C3910039   8.372   1.296   5.027
  201DPPC   C4010040   8.261   1.345   4.935
  201DPPC   C4110041   8.312   1.394   4.799
  201DPPC   C4210042   8.198   1.479   4.741
  201DPPC   C4310043   8.221   1.552   4.609
  201DPPC   C4410044   8.089   1.614   4.563
  201DPPC   C4510045   7.971   1.519   4.540
  201DPPC   C4610046   7.848   1.597   4.494
  201DPPC   C4710047   7.722   1.510   4.491
  201DPPC   C4810048   7.605   1.605   4.464
  201DPPC   C4910049   7.476   1.541   4.515
  201DPPC   C5010050   7.487   1.509   4.664
  202DPPC    C110051   0.722   2.537   5.667
  202DPPC    C210052   0.937   2.551   5.766
  202DPPC    C310053   0.735   2.622   5.869
  202DPPC    N410054   0.797   2.514   5.791
  202DPPC    C510055   0.775   2.384   5.856
  202DPPC    C610056   0.754   2.256   5.775
  202DPPC    O710057   0.626   2.249   5.712
  202DPPC    P810058   0.597   2.110   5.637
  202DPPC    O910059   0.453   2.078   5.643
  202DPPC   O1010060   0.710   2.030   5.690
  202DPPC   O1110061   0.642   2.168   5.493
  202DPPC   C1210062   0.541   2.236   5.418
  202DPPC   C1310063   0.600   2.341   5.324
  202DPPC   O1410064   0.499   2.383   5.232
  202DPPC   C1510065   0.495   2.510   5.184
  202DPPC   O1610066   0.487   2.603   5.265
  202DPPC   C1710067   0.440   2.529   5.043
  202DPPC   C1810068   0.403   2.668   4.990
  202DPPC   C1910069   0.377   2.662   4.839
  202DPPC   C2010070   0.318   2.801   4.815
  202DPPC   C2110071   0.261   2.826   4.675
  202DPPC   C2210072   0.371   2.825   4.568
  202DPPC   C2310073   0.305   2.865   4.436
  202DPPC   C2410074   0.400   2.824   4.324
  202DPPC   C2510075   0.340   2.833   4.183
  202DPPC   C2610076   0.436   2.768   4.084
  202DPPC   C2710077   0.393   2.787   3.938
  202DPPC   C2810078   0.506   2.734   3.850
  202DPPC   C2910079   0.483   2.759   3.700
  202DPPC   C3010080   0.608   2.738   3.615
  202DPPC   C3110081   0.602   2.807   3.479
  202DPPC   C3210082   0.713   2.257   5.264
  202DPPC   O3310083   0.768   2.288   5.135
  202DPPC   C3410084   0.855   2.199   5.081
  202DPPC   O3510085   0.872   2.093   5.140
  202DPPC   C3610086   0.886   2.216   4.932
  202DPPC   C3710087   0.836   2.352   4.885
  202DPPC   C3810088   0.830   2.368   4.733
  202DPPC   C3910089   0.820   2.520   4.721
  202DPPC   C4010090   0.775   2.570   4.583
  202DPPC   C4110091   0.746   2.721   4.586
  202DPPC   C4210092   0.736   2.764   4.440
  202DPPC   C4310093   0.863   2.725   4.365
  202DPPC   C4410094   0.838   2.725   4.214
  202DPPC   C4510095   0.959   2.691   4.126
  202DPPC   C4610096   0.914   2.676   3.981
  202DPPC   C4710097   1.039   2.683   3.892
  202DPPC   C4810098   0.994   2.654   3.748
  202DPPC   C4910099   1.097   2.665   3.635
  202DPPC   C5010100   1.030   2.613   3.507
  203DPPC    C110101   1.989   7.562   4.461
  203DPPC    C210102   1.778   7.507   4.356
  203DPPC    C310103   1.895   7.349   4.495
  203DPPC    N410104   1.861   7.491   4.476
  203DPPC    C510105   1.786   7.541   4.592
  203DPPC    C610106   1.810   7.503   4.738
  203DPPC    O710107   1.932   7.556   4.791
  203DPPC    P810108   2.001   7.441   4.880
  203DPPC    O910109   1.908   7.330   4.911
  203DPPC   O1010110   2.087   7.514   4.976
  203DPPC   O1110111   2.097   7.371   4.772
  203DPPC   C1210112   2.236   7.402   4.785
  203DPPC   C1310113   2.296   7.355   4.652
  203DPPC   O1410114   2.285   7.452   4.547
  203DPPC   C1510115   2.392   7.529   4.514
  203DPPC   O1610116   2.433   7.595   4.609
  203DPPC   C1710117   2.401   7.571   4.367
  203DPPC   C1810118   2.541   7.561   4.306
  203DPPC   C1910119   2.537   7.561   4.153
  203DPPC   C2010120   2.671   7.569   4.080
  203DPPC   C2110121   2.778   7.470   4.126
  203DPPC   C2210122   2.905   7.480   4.041
  203DPPC   C2310123   2.928   7.625   4.000
  203DPPC   C2410124   3.053   7.649   3.914
  203DPPC   C2510125   3.074   7.798   3.890
  203DPPC   C2610126   3.178   7.822   3.779
  203DPPC   C2710127   3.213   7.967   3.748
  203DPPC   C2810128   3.258   8.034   3.878
  203DPPC   C2910129   3.314   8.174   3.857
  203DPPC   C3010130   3.324   8.233   3.998
  203DPPC   C3110131   3.423   8.350   3.992
  203DPPC   C3210132   2.261   7.209   4.624
  203DPPC   O3310133   2.317   7.150   4.506
  203DPPC   C3410134   2.270   7.191   4.386
  203DPPC   O3510135   2.165   7.255   4.379
  203DPPC   C3610136   2.365   7.185   4.266
  203DPPC   C3710137   2.327   7.072   4.169
  203DPPC   C3810138   2.437   7.064   4.062
  203DPPC   C3910139   2.425   6.934   3.982
  203DPPC   C4010140   2.317   6.948   3.874
  203DPPC   C4110141   2.265   6.810   3.836
  203DPPC   C4210142   2.134   6.817   3.757
  203DPPC   C4310143   2.073   6.679   3.729
  203DPPC   C4410144   1.946   6.704   3.649
  203DPPC   C4510145   1.873   6.582   3.592
  203DPPC   C4610146   1.743   6.631   3.529
  203DPPC   C4710147   1.636   6.523   3.547
  203DPPC   C4810148   1.509   6.573   3.478
  203DPPC   C4910149   1.433   6.677   3.560
  203DPPC   C5010150   1.298   6.722   3.502
  204DPPC    C110151   9.476   7.629   4.707
  204DPPC    C210152   9.666   7.607   4.558
  204DPPC    C310153   9.679   7.533   4.780
  204DPPC    N410154   9.588   7.543   4.665
  204DPPC    C510155   9.551   7.410   4.615
  204DPPC    C610156   9.431   7.347   4.686
  204DPPC    O710157   9.380   7.235   4.614
  204DPPC    P810158   9.288   7.166   4.726
  204DPPC    O910159   9.249   7.262   4.831
  204DPPC   O1010160   9.354   7.036   4.755
  204DPPC   O1110161   9.164   7.149   4.624
  204DPPC   C1210162   9.181   7.021   4.561
  204DPPC   C1310163   9.059   6.976   4.481
  204DPPC   O1410164   9.046   6.839   4.439
  204DPPC   C1510165   9.018   6.743   4.531
  204DPPC   O1610166   8.999   6.773   4.649
  204DPPC   C1710167   9.004   6.601   4.475
  204DPPC   C1810168   8.866   6.559   4.426
  204DPPC   C1910169   8.867   6.421   4.360
  204DPPC   C2010170   8.959   6.420   4.238
  204DPPC   C2110171   8.921   6.299   4.151
  204DPPC   C2210172   8.982   6.333   4.015
  204DPPC   C2310173   8.886   6.296   3.901
  204DPPC   C2410174   8.954   6.349   3.774
  204DPPC   C2510175   9.088   6.277   3.759
  204DPPC   C2610176   9.155   6.323   3.630
  204DPPC   C2710177   9.054   6.337   3.515
  204DPPC   C2810178   9.114   6.400   3.389
  204DPPC   C2910179   8.996   6.465   3.316
  204DPPC   C3010180   8.932   6.369   3.215
  204DPPC   C3110181   8.822   6.441   3.137
  204DPPC   C3210182   9.034   7.085   4.378
  204DPPC   O3310183   9.139   7.119   4.287
  204DPPC   C3410184   9.102   7.211   4.195
  204DPPC   O3510185   8.991   7.263   4.189
  204DPPC   C3610186   9.217   7.250   4.101
  204DPPC   C3710187   9.172   7.294   3.961
  204DPPC   C3810188   9.288   7.311   3.863
  204DPPC   C3910189   9.341   7.171   3.830
  204DPPC   C4010190   9.229   7.098   3.756
  204DPPC   C4110191   9.288   6.969   3.700
  204DPPC   C4210192   9.186   6.894   3.613
  204DPPC   C4310193   9.264   6.780   3.547
  204DPPC   C4410194   9.382   6.828   3.463
  204DPPC   C4510195   9.468   6.711   3.415
  204DPPC   C4610196   9.511   6.618   3.528
  204DPPC   C4710197   9.590   6.505   3.464
  204DPPC   C4810198   9.508   6.459   3.343
  204DPPC   C4910199   9.581   6.358   3.255
  204DPPC   C5010200   9.654   6.248   3.333
  205DPPC    C110201   2.213   8.064   5.612
  205DPPC    C210202   2.433   7.960   5.606
  205DPPC    C310203   2.249   7.852   5.520
  205DPPC    N410204   2.309   7.986   5.532
  205DPPC    C510205   2.331   8.060   5.407
  205DPPC    C610206   2.219   8.063   5.302
  205DPPC    O710207   2.110   8.148   5.339
  205DPPC    P810208   1.972   8.093   5.276
  205DPPC    O910209   1.858   8.173   5.326
  205DPPC   O1010210   1.975   7.947   5.301
  205DPPC   O1110211   2.005   8.123   5.121
  205DPPC   C1210212   1.945   8.249   5.092
  205DPPC   C1310213   2.028   8.377   5.104
  205DPPC   O1410214   1.946   8.490   5.072
  205DPPC   C1510215   1.989   8.615   5.104
  205DPPC   O1610216   2.069   8.628   5.196
  205DPPC   C1710217   1.893   8.723   5.054
  205DPPC   C1810218   1.902   8.739   4.902
  205DPPC   C1910219   1.833   8.873   4.878
  205DPPC   C2010220   1.803   8.901   4.731
  205DPPC   C2110221   1.700   8.796   4.686
  205DPPC   C2210222   1.661   8.804   4.539
  205DPPC   C2310223   1.553   8.697   4.519
  205DPPC   C2410224   1.419   8.748   4.466
  205DPPC   C2510225   1.437   8.819   4.332
  205DPPC   C2610226   1.311   8.876   4.266
  205DPPC   C2710227   1.347   8.919   4.123
  205DPPC   C2810228   1.218   8.984   4.072
  205DPPC   C2910229   1.258   9.039   3.935
  205DPPC   C3010230   1.142   9.084   3.845
  205DPPC   C3110231   1.196   9.152   3.719
  205DPPC   C3210232   2.154   8.367   5.017
  205DPPC   O3310233   2.136   8.351   4.876
  205DPPC   C3410234   2.216   8.423   4.794
  205DPPC   O3510235   2.293   8.512   4.828
  205DPPC   C3610236   2.212   8.392   4.644
  205DPPC   C3710237   2.301   8.276   4.599
  205DPPC   C3810238   2.281   8.258   4.448
  205DPPC   C3910239   2.358   8.136   4.400
  205DPPC   C4010240   2.342   8.121   4.248
  205DPPC   C4110241   2.397   7.990   4.191
  205DPPC   C4210242   2.375   8.002   4.040
  205DPPC   C4310243   2.398   7.867   3.972
  205DPPC   C4410244   2.433   7.911   3.830
  205DPPC   C4510245   2.476   7.800   3.735
  205DPPC   C4610246   2.504   7.852   3.594
  205DPPC   C4710247   2.579   7.754   3.503
  205DPPC   C4810248   2.700   7.703   3.582
  205DPPC   C4910249   2.796   7.623   3.493
  205DPPC   C5010250   2.913   7.561   3.569
  206DPPC    C110251   2.057   5.309   4.960
  206DPPC    C210252   1.984   5.138   4.813
  206DPPC    C310253   2.097   5.072   5.018
  206DPPC    N410254   2.008   5.170   4.955
  206DPPC    C510255   1.893   5.139   5.041
  206DPPC    C610256   1.770   5.230   5.033
  206DPPC    O710257   1.702   5.239   4.908
  206DPPC    P810258   1.557   5.308   4.918
  206DPPC    O910259   1.575   5.384   5.043
  206DPPC   O1010260   1.439   5.218   4.910
  206DPPC   O1110261   1.570   5.412   4.796
  206DPPC   C1210262   1.526   5.341   4.679
  206DPPC   C1310263   1.548   5.416   4.548
  206DPPC   O1410264   1.480   5.359   4.435
  206DPPC   C1510265   1.344   5.369   4.426
  206DPPC   O1610266   1.276   5.433   4.505
  206DPPC   C1710267   1.276   5.293   4.312
  206DPPC   C1810268   1.228   5.381   4.197
  206DPPC   C1910269   1.200   5.279   4.086
  206DPPC   C2010270   1.162   5.355   3.958
  206DPPC   C2110271   1.135   5.258   3.843
  206DPPC   C2210272   1.100   5.347   3.723
  206DPPC   C2310273   1.066   5.270   3.596
  206DPPC   C2410274   1.040   5.366   3.480
  206DPPC   C2510275   1.167   5.449   3.457
  206DPPC   C2610276   1.152   5.556   3.349
  206DPPC   C2710277   1.274   5.639   3.311
  206DPPC   C2810278   1.307   5.757   3.402
  206DPPC   C2910279   1.443   5.821   3.371
  206DPPC   C3010280   1.492   5.911   3.485
  206DPPC   C3110281   1.535   5.830   3.607
  206DPPC   C3210282   1.700   5.400   4.538
  206DPPC   O3310283   1.748   5.281   4.474
  206DPPC   C3410284   1.884   5.273   4.471
  206DPPC   O3510285   1.962   5.333   4.546
  206DPPC   C3610286   1.935   5.146   4.404
  206DPPC   C3710287   1.983   5.179   4.263
  206DPPC   C3810288   2.036   5.051   4.198
  206DPPC   C3910289   2.135   4.981   4.291
  206DPPC   C4010290   2.166   4.860   4.202
  206DPPC   C4110291   2.269   4.762   4.259
  206DPPC   C4210292   2.295   4.665   4.143
  206DPPC   C4310293   2.363   4.736   4.026
  206DPPC   C4410294   2.504   4.783   4.063
  206DPPC   C4510295   2.598   4.803   3.945
  206DPPC   C4610296   2.744   4.837   3.978
  206DPPC   C4710297   2.838   4.832   3.858
  206DPPC   C4810298   2.975   4.885   3.899
  206DPPC   C4910299   3.066   4.898   3.777
  206DPPC   C5010300   3.211   4.918   3.822
  207DPPC    C110301   6.535   0.253   6.061
  207DPPC    C210302   6.742   0.275   5.952
  207DPPC    C310303   6.572   0.148   5.848
  207DPPC    N410304   6.597   0.268   5.929
  207DPPC    C510305   6.538   0.379   5.852
  207DPPC    C610306   6.584   0.524   5.875
  207DPPC    O710307   6.502   0.613   5.798
  207DPPC    P810308   6.562   0.762   5.808
  207DPPC    O910309   6.580   0.794   5.951
  207DPPC   O1010310   6.479   0.851   5.724
  207DPPC   O1110311   6.696   0.717   5.731
  207DPPC   C1210312   6.726   0.778   5.605
  207DPPC   C1310313   6.868   0.825   5.572
  207DPPC   O1410314   6.881   0.938   5.485
  207DPPC   C1510315   6.998   1.008   5.484
  207DPPC   O1610316   7.076   0.991   5.577
  207DPPC   C1710317   7.026   1.099   5.364
  207DPPC   C1810318   6.966   1.238   5.384
  207DPPC   C1910319   6.964   1.327   5.259
  207DPPC   C2010320   6.882   1.274   5.142
  207DPPC   C2110321   6.879   1.365   5.019
  207DPPC   C2210322   7.007   1.344   4.938
  207DPPC   C2310323   6.980   1.439   4.821
  207DPPC   C2410324   7.081   1.415   4.709
  207DPPC   C2510325   7.032   1.491   4.585
  207DPPC   C2610326   7.142   1.479   4.479
  207DPPC   C2710327   7.106   1.522   4.337
  207DPPC   C2810328   7.062   1.669   4.329
  207DPPC   C2910329   6.989   1.688   4.196
  207DPPC   C3010330   7.024   1.830   4.149
  207DPPC   C3110331   6.974   1.859   4.008
  207DPPC   C3210332   6.934   0.699   5.516
  207DPPC   O3310333   6.859   0.633   5.414
  207DPPC   C3410334   6.930   0.537   5.349
  207DPPC   O3510335   7.041   0.498   5.383
  207DPPC   C3610336   6.853   0.468   5.236
  207DPPC   C3710337   6.737   0.548   5.177
  207DPPC   C3810338   6.659   0.473   5.069
  207DPPC   C3910339   6.566   0.562   4.987
  207DPPC   C4010340   6.524   0.479   4.865
  207DPPC   C4110341   6.434   0.365   4.913
  207DPPC   C4210342   6.392   0.277   4.795
  207DPPC   C4310343   6.348   0.135   4.828
  207DPPC   C4410344   6.339   0.047   4.703
  207DPPC   C4510345   6.471   0.050   4.624
  207DPPC   C4610346   6.437  -0.013   4.489
  207DPPC   C4710347   6.555  -0.056   4.402
  207DPPC   C4810348   6.512  -0.094   4.260
  207DPPC   C4910349   6.642  -0.123   4.183
  207DPPC   C5010350   6.585  -0.190   4.058
  208DPPC    C110351   5.239   1.436   5.541
  208DPPC    C210352   5.386   1.337   5.387
  208DPPC    C310353   5.284   1.561   5.349
  208DPPC    N410354   5.344   1.466   5.443
  208DPPC    C510355   5.463   1.540   5.488
  208DPPC    C610356   5.551   1.482   5.599
  208DPPC    O710357   5.688   1.519   5.580
  208DPPC    P810358   5.796   1.480   5.692
  208DPPC    O910359   5.720   1.481   5.819
  208DPPC   O1010360   5.927   1.540   5.658
  208DPPC   O1110361   5.811   1.324   5.654
  208DPPC   C1210362   5.866   1.317   5.522
  208DPPC   C1310363   5.883   1.176   5.467
  208DPPC   O1410364   5.983   1.175   5.365
  208DPPC   C1510365   6.092   1.095   5.382
  208DPPC   O1610366   6.095   1.007   5.468
  208DPPC   C1710367   6.211   1.136   5.295
  208DPPC   C1810368   6.173   1.236   5.185
  208DPPC   C1910369   6.299   1.313   5.144
  208DPPC   C2010370   6.265   1.365   5.004
  208DPPC   C2110371   6.368   1.458   4.940
  208DPPC   C2210372   6.292   1.513   4.819
  208DPPC   C2310373   6.215   1.637   4.866
  208DPPC   C2410374   6.154   1.708   4.745
  208DPPC   C2510375   6.072   1.831   4.786
  208DPPC   C2610376   6.007   1.886   4.659
  208DPPC   C2710377   5.890   1.802   4.608
  208DPPC   C2810378   5.852   1.863   4.473
  208DPPC   C2910379   5.979   1.850   4.388
  208DPPC   C3010380   5.935   1.893   4.248
  208DPPC   C3110381   6.032   1.845   4.140
  208DPPC   C3210382   5.739   1.132   5.441
  208DPPC   O3310383   5.705   1.107   5.304
  208DPPC   C3410384   5.713   1.210   5.216
  208DPPC   O3510385   5.684   1.323   5.256
  208DPPC   C3610386   5.707   1.175   5.067
  208DPPC   C3710387   5.829   1.229   4.993
  208DPPC   C3810388   5.824   1.210   4.841
  208DPPC   C3910389   5.950   1.268   4.776
  208DPPC   C4010390   5.940   1.269   4.623
  208DPPC   C4110391   6.036   1.375   4.568
  208DPPC   C4210392   6.034   1.350   4.417
  208DPPC   C4310393   6.120   1.444   4.332
  208DPPC   C4410394   6.271   1.434   4.356
  208DPPC   C4510395   6.327   1.542   4.265
  208DPPC   C4610396   6.464   1.566   4.329
  208DPPC   C4710397   6.531   1.429   4.331
  208DPPC   C4810398   6.677   1.424   4.377
  208DPPC   C4910399   6.684   1.461   4.525
  208DPPC   C5010400   6.652   1.332   4.601
  209DPPC    C110401   4.796   3.790   6.059
  209DPPC    C210402   4.935   3.954   5.942
  209DPPC    C310403   4.929   3.716   5.886
  209DPPC    N410404   4.852   3.834   5.930
  209DPPC    C510405   4.746   3.842   5.829
  209DPPC    C610406   4.643   3.949   5.867
  209DPPC    O710407   4.524   3.958   5.788
  209DPPC    P810408   4.432   4.079   5.841
  209DPPC    O910409   4.483   4.106   5.978
  209DPPC   O1010410   4.292   4.040   5.813
  209DPPC   O1110411   4.494   4.200   5.754
  209DPPC   C1210412   4.511   4.162   5.618
  209DPPC   C1310413   4.379   4.141   5.544
  209DPPC   O1410414   4.390   4.080   5.414
  209DPPC   C1510415   4.277   4.022   5.364
  209DPPC   O1610416   4.188   3.992   5.443
  209DPPC   C1710417   4.288   3.958   5.226
  209DPPC   C1810418   4.151   3.926   5.167
  209DPPC   C1910419   4.169   3.932   5.015
  209DPPC   C2010420   4.277   3.831   4.976
  209DPPC   C2110421   4.291   3.823   4.824
  209DPPC   C2210422   4.400   3.722   4.788
  209DPPC   C2310423   4.433   3.704   4.640
  209DPPC   C2410424   4.555   3.612   4.641
  209DPPC   C2510425   4.550   3.476   4.710
  209DPPC   C2610426   4.675   3.387   4.710
  209DPPC   C2710427   4.721   3.350   4.568
  209DPPC   C2810428   4.847   3.265   4.576
  209DPPC   C2910429   4.889   3.230   4.433
  209DPPC   C3010430   5.027   3.165   4.415
  209DPPC   C3110431   5.068   3.124   4.273
  209DPPC   C3210432   4.297   4.269   5.556
  209DPPC   O3310433   4.346   4.389   5.495
  209DPPC   C3410434   4.289   4.510   5.522
  209DPPC   O3510435   4.251   4.539   5.635
  209DPPC   C3610436   4.336   4.622   5.429
  209DPPC   C3710437   4.360   4.564   5.290
  209DPPC   C3810438   4.443   4.659   5.204
  209DPPC   C3910439   4.453   4.600   5.063
  209DPPC   C4010440   4.575   4.650   4.985
  209DPPC   C4110441   4.541   4.799   4.975
  209DPPC   C4210442   4.656   4.861   4.896
  209DPPC   C4310443   4.787   4.851   4.974
  209DPPC   C4410444   4.914   4.887   4.896
  209DPPC   C4510445   4.915   4.810   4.764
  209DPPC   C4610446   5.016   4.871   4.666
  209DPPC   C4710447   4.987   4.807   4.530
  209DPPC   C4810448   5.063   4.865   4.411
  209DPPC   C4910449   5.212   4.833   4.420
  209DPPC   C5010450   5.232   4.681   4.422
  210DPPC    C110451   6.468   1.354   5.910
  210DPPC    C210452   6.427   1.397   6.147
  210DPPC    C310453   6.309   1.224   6.034
  210DPPC    N410454   6.438   1.295   6.042
  210DPPC    C510455   6.540   1.198   6.085
  210DPPC    C610456   6.615   1.129   5.971
  210DPPC    O710457   6.729   1.204   5.928
  210DPPC    P810458   6.815   1.133   5.812
  210DPPC    O910459   6.869   1.005   5.865
  210DPPC   O1010460   6.891   1.250   5.762
  210DPPC   O1110461   6.695   1.106   5.708
  210DPPC   C1210462   6.684   1.224   5.628
  210DPPC   C1310463   6.575   1.228   5.520
  210DPPC   O1410464   6.455   1.289   5.569
  210DPPC   C1510465   6.450   1.421   5.535
  210DPPC   O1610466   6.555   1.484   5.540
  210DPPC   C1710467   6.318   1.499   5.543
  210DPPC   C1810468   6.342   1.632   5.472
  210DPPC   C1910469   6.213   1.714   5.471
  210DPPC   C2010470   6.231   1.838   5.383
  210DPPC   C2110471   6.132   1.942   5.438
  210DPPC   C2210472   6.166   2.079   5.381
  210DPPC   C2310473   6.176   2.076   5.228
  210DPPC   C2410474   6.220   2.209   5.166
  210DPPC   C2510475   6.222   2.186   5.015
  210DPPC   C2610476   6.291   2.294   4.932
  210DPPC   C2710477   6.289   2.266   4.781
  210DPPC   C2810478   6.341   2.389   4.706
  210DPPC   C2910479   6.365   2.318   4.573
  210DPPC   C3010480   6.234   2.281   4.503
  210DPPC   C3110481   6.242   2.181   4.388
  210DPPC   C3210482   6.576   1.084   5.469
  210DPPC   O3310483   6.603   1.069   5.329
  210DPPC   C3410484   6.590   0.945   5.275
  210DPPC   O3510485   6.503   0.872   5.323
  210DPPC   C3610486   6.636   0.933   5.130
  210DPPC   C3710487   6.546   1.006   5.030
  210DPPC   C3810488   6.608   1.039   4.895
  210DPPC   C3910489   6.675   0.907   4.855
  210DPPC   C4010490   6.745   0.917   4.718
  210DPPC   C4110491   6.864   1.012   4.731
  210DPPC   C4210492   6.941   1.026   4.600
  210DPPC   C4310493   6.855   1.060   4.478
  210DPPC   C4410494   6.947   1.091   4.360
  210DPPC   C4510495   6.978   0.960   4.287
  210DPPC   C4610496   6.857   0.898   4.216
  210DPPC   C4710497   6.887   0.779   4.125
  210DPPC   C4810498   6.759   0.747   4.047
  210DPPC   C4910499   6.723   0.861   3.951
  210DPPC   C5010500   6.599   0.828   3.867
  211DPPC    C110501   1.418   7.912   5.319
  211DPPC    C210502   1.555   8.109   5.312
  211DPPC    C310503   1.599   7.922   5.469
  211DPPC    N410504   1.555   7.963   5.335
  211DPPC    C510505   1.648   7.921   5.229
  211DPPC    C610506   1.654   7.778   5.176
  211DPPC    O710507   1.552   7.752   5.080
  211DPPC    P810508   1.574   7.617   4.996
  211DPPC    O910509   1.436   7.566   5.011
  211DPPC   O1010510   1.693   7.554   5.058
  211DPPC   O1110511   1.612   7.715   4.874
  211DPPC   C1210512   1.492   7.769   4.818
  211DPPC   C1310513   1.519   7.872   4.708
  211DPPC   O1410514   1.537   7.819   4.576
  211DPPC   C1510515   1.425   7.787   4.507
  211DPPC   O1610516   1.318   7.780   4.568
  211DPPC   C1710517   1.450   7.714   4.375
  211DPPC   C1810518   1.434   7.823   4.269
  211DPPC   C1910519   1.286   7.860   4.256
  211DPPC   C2010520   1.251   7.933   4.126
  211DPPC   C2110521   1.111   7.992   4.142
  211DPPC   C2210522   1.073   8.089   4.029
  211DPPC   C2310523   1.114   8.021   3.898
  211DPPC   C2410524   1.091   8.123   3.787
  211DPPC   C2510525   1.105   8.066   3.646
  211DPPC   C2610526   0.984   7.986   3.597
  211DPPC   C2710527   0.892   8.075   3.512
  211DPPC   C2810528   0.971   8.145   3.401
  211DPPC   C2910529   0.867   8.205   3.307
  211DPPC   C3010530   0.917   8.301   3.199
  211DPPC   C3110531   1.014   8.238   3.099
  211DPPC   C3210532   1.630   7.962   4.762
  211DPPC   O3310533   1.651   8.077   4.681
  211DPPC   C3410534   1.719   8.166   4.758
  211DPPC   O3510535   1.767   8.131   4.866
  211DPPC   C3610536   1.733   8.309   4.704
  211DPPC   C3710537   1.852   8.318   4.608
  211DPPC   C3810538   1.836   8.447   4.527
  211DPPC   C3910539   1.935   8.450   4.410
  211DPPC   C4010540   1.895   8.581   4.343
  211DPPC   C4110541   1.860   8.555   4.196
  211DPPC   C4210542   1.812   8.682   4.127
  211DPPC   C4310543   1.777   8.657   3.981
  211DPPC   C4410544   1.759   8.779   3.890
  211DPPC   C4510545   1.619   8.838   3.910
  211DPPC   C4610546   1.598   8.969   3.834
  211DPPC   C4710547   1.640   8.946   3.689
  211DPPC   C4810548   1.621   9.081   3.620
  211DPPC   C4910549   1.718   9.193   3.661
  211DPPC   C5010550   1.653   9.313   3.591
  212DPPC    C110551   4.695   8.170   5.707
  212DPPC    C210552   4.749   8.385   5.628
  212DPPC    C310553   4.904   8.213   5.585
  212DPPC    N410554   4.761   8.242   5.597
  212DPPC    C510555   4.682   8.205   5.478
  212DPPC    C610556   4.690   8.286   5.349
  212DPPC    O710557   4.821   8.307   5.295
  212DPPC    P810558   4.807   8.453   5.227
  212DPPC    O910559   4.928   8.481   5.147
  212DPPC   O1010560   4.749   8.537   5.334
  212DPPC   O1110561   4.696   8.435   5.112
  212DPPC   C1210562   4.749   8.328   5.032
  212DPPC   C1310563   4.658   8.273   4.922
  212DPPC   O1410564   4.711   8.160   4.851
  212DPPC   C1510565   4.726   8.038   4.909
  212DPPC   O1610566   4.676   8.021   5.020
  212DPPC   C1710567   4.781   7.931   4.814
  212DPPC   C1810568   4.715   7.951   4.678
  212DPPC   C1910569   4.765   7.860   4.565
  212DPPC   C2010570   4.667   7.900   4.455
  212DPPC   C2110571   4.711   7.829   4.326
  212DPPC   C2210572   4.582   7.764   4.275
  212DPPC   C2310573   4.592   7.677   4.149
  212DPPC   C2410574   4.465   7.595   4.127
  212DPPC   C2510575   4.485   7.510   4.001
  212DPPC   C2610576   4.495   7.586   3.869
  212DPPC   C2710577   4.537   7.469   3.778
  212DPPC   C2810578   4.584   7.503   3.637
  212DPPC   C2910579   4.623   7.381   3.554
  212DPPC   C3010580   4.656   7.409   3.407
  212DPPC   C3110581   4.700   7.271   3.358
  212DPPC   C3210582   4.610   8.396   4.846
  212DPPC   O3310583   4.722   8.461   4.785
  212DPPC   C3410584   4.701   8.577   4.718
  212DPPC   O3510585   4.595   8.639   4.723
  212DPPC   C3610586   4.834   8.637   4.671
  212DPPC   C3710587   4.830   8.643   4.518
  212DPPC   C3810588   4.964   8.650   4.445
  212DPPC   C3910589   4.927   8.677   4.299
  212DPPC   C4010590   5.053   8.691   4.212
  212DPPC   C4110591   5.165   8.590   4.240
  212DPPC   C4210592   5.287   8.612   4.150
  212DPPC   C4310593   5.420   8.546   4.186
  212DPPC   C4410594   5.475   8.605   4.315
  212DPPC   C4510595   5.597   8.521   4.356
  212DPPC   C4610596   5.697   8.522   4.241
  212DPPC   C4710597   5.829   8.470   4.298
  212DPPC   C4810598   5.936   8.440   4.193
  212DPPC   C4910599   6.045   8.370   4.274
  212DPPC   C5010600   6.138   8.324   4.162
  213DPPC    C110601   7.701   1.896   5.984
  213DPPC    C210602   7.764   2.103   5.907
  213DPPC    C310603   7.786   1.934   5.752
  213DPPC    N410604   7.700   1.978   5.863
  213DPPC    C510605   7.568   2.007   5.804
  213DPPC    C610606   7.463   1.897   5.799
  213DPPC    O710607   7.511   1.777   5.737
  213DPPC    P810608   7.443   1.653   5.812
  213DPPC    O910609   7.363   1.700   5.928
  213DPPC   O1010610   7.548   1.550   5.828
  213DPPC   O1110611   7.346   1.598   5.695
  213DPPC   C1210612   7.412   1.580   5.569
  213DPPC   C1310613   7.323   1.554   5.447
  213DPPC   O1410614   7.393   1.499   5.335
  213DPPC   C1510615   7.429   1.368   5.347
  213DPPC   O1610616   7.406   1.302   5.448
  213DPPC   C1710617   7.490   1.302   5.223
  213DPPC   C1810618   7.392   1.281   5.108
  213DPPC   C1910619   7.442   1.190   4.995
  213DPPC   C2010620   7.333   1.164   4.891
  213DPPC   C2110621   7.374   1.068   4.779
  213DPPC   C2210622   7.495   1.120   4.701
  213DPPC   C2310623   7.560   1.001   4.630
  213DPPC   C2410624   7.471   0.985   4.507
  213DPPC   C2510625   7.453   1.114   4.427
  213DPPC   C2610626   7.574   1.115   4.333
  213DPPC   C2710627   7.565   1.241   4.247
  213DPPC   C2810628   7.447   1.221   4.152
  213DPPC   C2910629   7.428   1.329   4.044
  213DPPC   C3010630   7.286   1.335   3.988
  213DPPC   C3110631   7.295   1.432   3.871
  213DPPC   C3210632   7.229   1.675   5.437
  213DPPC   O3310633   7.115   1.656   5.354
  213DPPC   C3410634   7.027   1.758   5.332
  213DPPC   O3510635   7.027   1.857   5.406
  213DPPC   C3610636   6.914   1.737   5.232
  213DPPC   C3710637   6.789   1.700   5.312
  213DPPC   C3810638   6.666   1.715   5.221
  213DPPC   C3910639   6.658   1.849   5.149
  213DPPC   C4010640   6.622   1.953   5.255
  213DPPC   C4110641   6.621   2.098   5.207
  213DPPC   C4210642   6.598   2.204   5.315
  213DPPC   C4310643   6.592   2.345   5.256
  213DPPC   C4410644   6.711   2.400   5.176
  213DPPC   C4510645   6.697   2.547   5.137
  213DPPC   C4610646   6.565   2.564   5.062
  213DPPC   C4710647   6.552   2.705   5.004
  213DPPC   C4810648   6.425   2.733   4.922
  213DPPC   C4910649   6.426   2.879   4.876
  213DPPC   C5010650   6.377   2.965   4.992
  214DPPC    C110651   5.543   7.852   5.621
  214DPPC    C210652   5.559   7.674   5.773
  214DPPC    C310653   5.511   7.615   5.545
  214DPPC    N410654   5.581   7.710   5.632
  214DPPC    C510655   5.727   7.699   5.627
  214DPPC    C610656   5.807   7.741   5.503
  214DPPC    O710657   5.804   7.637   5.405
  214DPPC    P810658   5.890   7.682   5.276
  214DPPC    O910659   5.963   7.554   5.262
  214DPPC   O1010660   5.955   7.809   5.314
  214DPPC   O1110661   5.759   7.689   5.183
  214DPPC   C1210662   5.751   7.579   5.092
  214DPPC   C1310663   5.605   7.564   5.050
  214DPPC   O1410664   5.578   7.449   4.969
  214DPPC   C1510665   5.596   7.327   5.028
  214DPPC   O1610666   5.617   7.305   5.147
  214DPPC   C1710667   5.602   7.224   4.916
  214DPPC   C1810668   5.684   7.100   4.954
  214DPPC   C1910669   5.730   7.021   4.832
  214DPPC   C2010670   5.812   6.893   4.852
  214DPPC   C2110671   5.804   6.801   4.730
  214DPPC   C2210672   5.898   6.682   4.750
  214DPPC   C2310673   6.038   6.745   4.748
  214DPPC   C2410674   6.140   6.631   4.755
  214DPPC   C2510675   6.113   6.524   4.649
  214DPPC   C2610676   6.201   6.399   4.656
  214DPPC   C2710677   6.149   6.296   4.556
  214DPPC   C2810678   5.996   6.301   4.553
  214DPPC   C2910679   5.947   6.214   4.437
  214DPPC   C3010680   5.946   6.063   4.463
  214DPPC   C3110681   5.935   5.973   4.341
  214DPPC   C3210682   5.585   7.695   4.973
  214DPPC   O3310683   5.676   7.744   4.875
  214DPPC   C3410684   5.636   7.866   4.830
  214DPPC   O3510685   5.554   7.930   4.897
  214DPPC   C3610686   5.697   7.931   4.706
  214DPPC   C3710687   5.754   7.829   4.608
  214DPPC   C3810688   5.849   7.887   4.503
  214DPPC   C3910689   5.925   7.768   4.443
  214DPPC   C4010690   5.989   7.799   4.308
  214DPPC   C4110691   6.081   7.678   4.291
  214DPPC   C4210692   6.068   7.633   4.146
  214DPPC   C4310693   6.161   7.515   4.117
  214DPPC   C4410694   6.303   7.541   4.168
  214DPPC   C4510695   6.404   7.441   4.111
  214DPPC   C4610696   6.355   7.301   4.148
  214DPPC   C4710697   6.443   7.183   4.105
  214DPPC   C4810698   6.582   7.198   4.167
  214DPPC   C4910699   6.665   7.074   4.130
  214DPPC   C5010700   6.800   7.080   4.201
  215DPPC    C110701   8.108   0.239   5.260
  215DPPC    C210702   8.191   0.370   5.449
  215DPPC    C310703   8.002   0.244   5.459
  215DPPC    N410704   8.138   0.240   5.404
  215DPPC    C510705   8.200   0.119   5.461
  215DPPC    C610706   8.351   0.110   5.439
  215DPPC    O710707   8.394   0.042   5.321
  215DPPC    P810708   8.536   0.090   5.263
  215DPPC    O910709   8.635   0.003   5.330
  215DPPC   O1010710   8.527   0.232   5.304
  215DPPC   O1110711   8.503   0.059   5.108
  215DPPC   C1210712   8.443   0.174   5.050
  215DPPC   C1310713   8.424   0.149   4.900
  215DPPC   O1410714   8.393   0.267   4.824
  215DPPC   C1510715   8.287   0.348   4.849
  215DPPC   O1610716   8.234   0.352   4.959
  215DPPC   C1710717   8.260   0.451   4.739
  215DPPC   C1810718   8.221   0.366   4.618
  215DPPC   C1910719   8.199   0.439   4.485
  215DPPC   C2010720   8.161   0.334   4.381
  215DPPC   C2110721   8.121   0.392   4.245
  215DPPC   C2210722   8.240   0.472   4.194
  215DPPC   C2310723   8.195   0.539   4.063
  215DPPC   C2410724   8.131   0.672   4.102
  215DPPC   C2510725   8.079   0.746   3.978
  215DPPC   C2610726   8.014   0.877   4.023
  215DPPC   C2710727   7.953   0.928   3.892
  215DPPC   C2810728   7.875   0.816   3.822
  215DPPC   C2910729   7.792   0.852   3.699
  215DPPC   C3010730   7.665   0.920   3.748
  215DPPC   C3110731   7.598   0.851   3.867
  215DPPC   C3210732   8.311   0.046   4.893
  215DPPC   O3310733   8.266   0.027   4.759
  215DPPC   C3410734   8.342  -0.012   4.652
  215DPPC   O3510735   8.440  -0.080   4.683
  215DPPC   C3610736   8.279   0.005   4.514
  215DPPC   C3710737   8.201  -0.118   4.467
  215DPPC   C3810738   8.131  -0.071   4.339
  215DPPC   C3910739   8.027  -0.178   4.305
  215DPPC   C4010740   7.933  -0.142   4.190
  215DPPC   C4110741   7.855  -0.266   4.147
  215DPPC   C4210742   7.753  -0.228   4.039
  215DPPC   C4310743   7.827  -0.185   3.912
  215DPPC   C4410744   7.727  -0.178   3.796
  215DPPC   C4510745   7.620  -0.069   3.802
  215DPPC   C4610746   7.522  -0.075   3.684
  215DPPC   C4710747   7.449  -0.209   3.678
  215DPPC   C4810748   7.385  -0.212   3.539
  215DPPC   C4910749   7.322  -0.348   3.505
  215DPPC   C5010750   7.339  -0.380   3.356
  216DPPC    C110751   4.479   0.182   5.144
  216DPPC    C210752   4.544   0.377   5.002
  216DPPC    C310753   4.384   0.404   5.169
  216DPPC    N410754   4.504   0.326   5.134
  216DPPC    C510755   4.602   0.363   5.238
  216DPPC    C610756   4.663   0.503   5.246
  216DPPC    O710757   4.583   0.604   5.308
  216DPPC    P810758   4.667   0.740   5.291
  216DPPC    O910759   4.812   0.710   5.307
  216DPPC   O1010760   4.582   0.808   5.391
  216DPPC   O1110761   4.621   0.779   5.142
  216DPPC   C1210762   4.483   0.817   5.135
  216DPPC   C1310763   4.432   0.856   4.996
  216DPPC   O1410764   4.371   0.740   4.938
  216DPPC   C1510765   4.238   0.711   4.945
  216DPPC   O1610766   4.183   0.746   5.049
  216DPPC   C1710767   4.215   0.576   4.876
  216DPPC   C1810768   4.288   0.554   4.743
  216DPPC   C1910769   4.270   0.416   4.680
  216DPPC   C2010770   4.307   0.415   4.532
  216DPPC   C2110771   4.276   0.286   4.455
  216DPPC   C2210772   4.335   0.275   4.315
  216DPPC   C2310773   4.487   0.273   4.295
  216DPPC   C2410774   4.536   0.282   4.150
  216DPPC   C2510775   4.583   0.141   4.114
  216DPPC   C2610776   4.704   0.146   4.020
  216DPPC   C2710777   4.770   0.018   3.969
  216DPPC   C2810778   4.883   0.049   3.871
  216DPPC   C2910779   4.949  -0.078   3.815
  216DPPC   C3010780   4.862  -0.152   3.714
  216DPPC   C3110781   4.808  -0.066   3.599
  216DPPC   C3210782   4.537   0.929   4.913
  216DPPC   O3310783   4.555   1.070   4.931
  216DPPC   C3410784   4.656   1.122   4.856
  216DPPC   O3510785   4.746   1.051   4.812
  216DPPC   C3610786   4.635   1.266   4.808
  216DPPC   C3710787   4.544   1.280   4.686
  216DPPC   C3810788   4.479   1.419   4.696
  216DPPC   C3910789   4.360   1.436   4.602
  216DPPC   C4010790   4.268   1.323   4.648
  216DPPC   C4110791   4.166   1.280   4.542
  216DPPC   C4210792   4.055   1.385   4.530
  216DPPC   C4310793   3.949   1.331   4.433
  216DPPC   C4410794   3.997   1.305   4.290
  216DPPC   C4510795   3.884   1.343   4.194
  216DPPC   C4610796   3.908   1.300   4.049
  216DPPC   C4710797   3.809   1.360   3.949
  216DPPC   C4810798   3.826   1.277   3.821
  216DPPC   C4910799   3.738   1.329   3.707
  216DPPC   C5010800   3.747   1.239   3.583
  217DPPC    C110801   5.551   6.813   5.527
  217DPPC    C210802   5.570   6.982   5.369
  217DPPC    C310803   5.432   6.800   5.324
  217DPPC    N410804   5.472   6.892   5.432
  217DPPC    C510805   5.350   6.945   5.496
  217DPPC    C610806   5.362   7.086   5.554
  217DPPC    O710807   5.240   7.160   5.548
  217DPPC    P810808   5.256   7.298   5.629
  217DPPC    O910809   5.378   7.312   5.711
  217DPPC   O1010810   5.135   7.368   5.678
  217DPPC   O1110811   5.306   7.376   5.497
  217DPPC   C1210812   5.201   7.394   5.402
  217DPPC   C1310813   5.241   7.452   5.266
  217DPPC   O1410814   5.148   7.547   5.211
  217DPPC   C1510815   5.176   7.632   5.109
  217DPPC   O1610816   5.290   7.672   5.087
  217DPPC   C1710817   5.056   7.691   5.033
  217DPPC   C1810818   5.089   7.712   4.885
  217DPPC   C1910819   5.136   7.855   4.856
  217DPPC   C2010820   5.122   7.892   4.709
  217DPPC   C2110821   5.191   7.799   4.609
  217DPPC   C2210822   5.173   7.845   4.464
  217DPPC   C2310823   5.250   7.746   4.376
  217DPPC   C2410824   5.228   7.796   4.233
  217DPPC   C2510825   5.078   7.781   4.206
  217DPPC   C2610826   5.062   7.805   4.055
  217DPPC   C2710827   4.918   7.829   4.011
  217DPPC   C2810828   4.913   7.915   3.885
  217DPPC   C2910829   4.968   7.834   3.768
  217DPPC   C3010830   4.993   7.933   3.654
  217DPPC   C3110831   5.066   7.859   3.541
  217DPPC   C3210832   5.284   7.334   5.178
  217DPPC   O3310833   5.174   7.242   5.178
  217DPPC   C3410834   5.215   7.122   5.127
  217DPPC   O3510835   5.330   7.093   5.096
  217DPPC   C3610836   5.101   7.021   5.117
  217DPPC   C3710837   5.000   7.059   5.009
  217DPPC   C3810838   5.062   7.031   4.871
  217DPPC   C3910839   4.954   6.971   4.781
  217DPPC   C4010840   4.944   7.022   4.637
  217DPPC   C4110841   4.821   6.968   4.563
  217DPPC   C4210842   4.840   6.991   4.413
  217DPPC   C4310843   4.969   6.939   4.349
  217DPPC   C4410844   4.949   6.988   4.205
  217DPPC   C4510845   5.072   6.954   4.120
  217DPPC   C4610846   5.041   6.976   3.972
  217DPPC   C4710847   5.166   6.952   3.887
  217DPPC   C4810848   5.247   7.065   3.953
  217DPPC   C4910849   5.368   7.098   3.865
  217DPPC   C5010850   5.473   7.194   3.920
  218DPPC    C110851   2.049   4.227   5.858
  218DPPC    C210852   2.230   4.338   5.777
  218DPPC    C310853   2.253   4.202   5.975
  218DPPC    N410854   2.194   4.210   5.840
  218DPPC    C510855   2.211   4.097   5.748
  218DPPC    C610856   2.351   4.075   5.690
  218DPPC    O710857   2.361   3.968   5.596
  218DPPC    P810858   2.510   3.958   5.537
  218DPPC    O910859   2.535   3.813   5.521
  218DPPC   O1010860   2.611   4.034   5.614
  218DPPC   O1110861   2.479   3.998   5.384
  218DPPC   C1210862   2.432   3.889   5.304
  218DPPC   C1310863   2.279   3.896   5.294
  218DPPC   O1410864   2.237   3.778   5.225
  218DPPC   C1510865   2.107   3.739   5.235
  218DPPC   O1610866   2.032   3.798   5.313
  218DPPC   C1710867   2.058   3.624   5.146
  218DPPC   C1810868   1.988   3.680   5.023
  218DPPC   C1910869   1.942   3.561   4.938
  218DPPC   C2010870   1.886   3.598   4.800
  218DPPC   C2110871   1.901   3.479   4.704
  218DPPC   C2210872   1.854   3.528   4.567
  218DPPC   C2310873   1.799   3.410   4.486
  218DPPC   C2410874   1.775   3.454   4.341
  218DPPC   C2510875   1.690   3.355   4.262
  218DPPC   C2610876   1.674   3.410   4.120
  218DPPC   C2710877   1.612   3.305   4.028
  218DPPC   C2810878   1.580   3.366   3.892
  218DPPC   C2910879   1.702   3.438   3.834
  218DPPC   C3010880   1.688   3.466   3.684
  218DPPC   C3110881   1.815   3.538   3.638
  218DPPC   C3210882   2.251   4.030   5.225
  218DPPC   O3310883   2.323   4.043   5.102
  218DPPC   C3410884   2.306   4.161   5.036
  218DPPC   O3510885   2.201   4.223   5.039
  218DPPC   C3610886   2.390   4.170   4.908
  218DPPC   C3710887   2.299   4.194   4.788
  218DPPC   C3810888   2.373   4.179   4.655
  218DPPC   C3910889   2.492   4.272   4.627
  218DPPC   C4010890   2.533   4.252   4.481
  218DPPC   C4110891   2.646   4.349   4.446
  218DPPC   C4210892   2.657   4.381   4.297
  218DPPC   C4310893   2.789   4.456   4.276
  218DPPC   C4410894   2.790   4.582   4.364
  218DPPC   C4510895   2.930   4.642   4.346
  218DPPC   C4610896   2.943   4.776   4.420
  218DPPC   C4710897   3.088   4.825   4.417
  218DPPC   C4810898   3.144   4.830   4.274
  218DPPC   C4910899   3.294   4.861   4.281
  218DPPC   C5010900   3.358   4.846   4.142
  219DPPC    C110901   8.982   6.739   5.078
  219DPPC    C210902   9.160   6.845   4.992
  219DPPC    C310903   9.192   6.734   5.197
  219DPPC    N410904   9.127   6.722   5.066
  219DPPC    C510905   9.171   6.623   4.966
  219DPPC    C610906   9.099   6.497   4.916
  219DPPC    O710907   9.186   6.419   4.833
  219DPPC    P810908   9.088   6.299   4.792
  219DPPC    O910909   8.976   6.368   4.724
  219DPPC   O1010910   9.057   6.216   4.911
  219DPPC   O1110911   9.173   6.197   4.701
  219DPPC   C1210912   9.181   6.269   4.578
  219DPPC   C1310913   9.267   6.211   4.465
  219DPPC   O1410914   9.255   6.284   4.342
  219DPPC   C1510915   9.348   6.272   4.243
  219DPPC   O1610916   9.449   6.207   4.270
  219DPPC   C1710917   9.339   6.357   4.116
  219DPPC   C1810918   9.409   6.299   3.993
  219DPPC   C1910919   9.431   6.408   3.889
  219DPPC   C2010920   9.554   6.383   3.801
  219DPPC   C2110921   9.535   6.250   3.728
  219DPPC   C2210922   9.678   6.195   3.725
  219DPPC   C2310923   9.681   6.049   3.681
  219DPPC   C2410924   9.827   6.017   3.652
  219DPPC   C2510925   9.822   5.876   3.592
  219DPPC   C2610926   9.732   5.789   3.679
  219DPPC   C2710927   9.671   5.671   3.602
  219DPPC   C2810928   9.590   5.732   3.488
  219DPPC   C2910929   9.470   5.815   3.533
  219DPPC   C3010930   9.452   5.923   3.426
  219DPPC   C3110931   9.318   5.995   3.450
  219DPPC   C3210932   9.237   6.062   4.447
  219DPPC   O3310933   9.103   6.017   4.430
  219DPPC   C3410934   9.092   5.882   4.430
  219DPPC   O3510935   9.179   5.820   4.493
  219DPPC   C3610936   8.970   5.815   4.368
  219DPPC   C3710937   8.945   5.683   4.442
  219DPPC   C3810938   8.808   5.633   4.396
  219DPPC   C3910939   8.807   5.593   4.249
  219DPPC   C4010940   8.676   5.535   4.195
  219DPPC   C4110941   8.675   5.514   4.044
  219DPPC   C4210942   8.541   5.448   4.009
  219DPPC   C4310943   8.534   5.411   3.861
  219DPPC   C4410944   8.564   5.534   3.775
  219DPPC   C4510945   8.581   5.498   3.628
  219DPPC   C4610946   8.447   5.446   3.576
  219DPPC   C4710947   8.450   5.466   3.424
  219DPPC   C4810948   8.317   5.452   3.350
  219DPPC   C4910949   8.342   5.419   3.203
  219DPPC   C5010950   8.204   5.405   3.137
  220DPPC    C110951   4.611   6.660   5.313
  220DPPC    C210952   4.452   6.497   5.324
  220DPPC    C310953   4.464   6.641   5.140
  220DPPC    N410954   4.546   6.558   5.230
  220DPPC    C510955   4.625   6.457   5.157
  220DPPC    C610956   4.736   6.390   5.238
  220DPPC    O710957   4.685   6.298   5.334
  220DPPC    P810958   4.779   6.175   5.379
  220DPPC    O910959   4.706   6.125   5.498
  220DPPC   O1010960   4.916   6.230   5.371
  220DPPC   O1110961   4.730   6.088   5.253
  220DPPC   C1210962   4.837   6.050   5.165
  220DPPC   C1310963   4.798   6.012   5.022
  220DPPC   O1410964   4.915   5.986   4.942
  220DPPC   C1510965   4.954   5.855   4.943
  220DPPC   O1610966   4.906   5.774   5.021
  220DPPC   C1710967   5.081   5.833   4.860
  220DPPC   C1810968   5.066   5.839   4.708
  220DPPC   C1910969   5.192   5.829   4.622
  220DPPC   C2010970   5.262   5.694   4.636
  220DPPC   C2110971   5.373   5.654   4.539
  220DPPC   C2210972   5.317   5.615   4.402
  220DPPC   C2310973   5.439   5.597   4.312
  220DPPC   C2410974   5.549   5.502   4.358
  220DPPC   C2510975   5.649   5.463   4.249
  220DPPC   C2610976   5.601   5.353   4.155
  220DPPC   C2710977   5.713   5.313   4.059
  220DPPC   C2810978   5.652   5.220   3.954
  220DPPC   C2910979   5.760   5.178   3.854
  220DPPC   C3010980   5.723   5.223   3.713
  220DPPC   C3110981   5.851   5.229   3.629
  220DPPC   C3210982   4.721   6.131   4.966
  220DPPC   O3310983   4.668   6.127   4.833
  220DPPC   C3410984   4.603   6.238   4.789
  220DPPC   O3510985   4.600   6.344   4.850
  220DPPC   C3610986   4.530   6.215   4.656
  220DPPC   C3710987   4.636   6.233   4.547
  220DPPC   C3810988   4.691   6.095   4.511
  220DPPC   C3910989   4.791   6.114   4.397
  220DPPC   C4010990   4.758   6.049   4.262
  220DPPC   C4110991   4.617   6.084   4.214
  220DPPC   C4210992   4.590   5.993   4.094
  220DPPC   C4310993   4.700   6.004   3.988
  220DPPC   C4410994   4.667   5.918   3.865
  220DPPC   C4510995   4.794   5.897   3.783
  220DPPC   C4610996   4.866   6.029   3.756
  220DPPC   C4710997   4.788   6.126   3.667
  220DPPC   C4810998   4.868   6.255   3.650
  220DPPC   C4910999   4.801   6.353   3.554
  220DPPC   C5011000   4.884   6.481   3.569
  221DPPC    C111001   0.434   6.168   4.585
  221DPPC    C211002   0.383   5.974   4.466
  221DPPC    C311003   0.516   6.134   4.355
  221DPPC    N411004   0.489   6.074   4.487
  221DPPC    C511005   0.610   6.011   4.541
  221DPPC    C611006   0.735   6.089   4.583
  221DPPC    O711007   0.831   6.035   4.674
  221DPPC    P811008   0.940   6.151   4.699
  221DPPC    O911009   1.025   6.109   4.812
  221DPPC   O1011010   0.867   6.280   4.698
  221DPPC   O1111011   1.012   6.136   4.556
  221DPPC   C1211012   1.132   6.061   4.567
  221DPPC   C1311013   1.202   6.028   4.435
  221DPPC   O1411014   1.298   6.113   4.371
  221DPPC   C1511015   1.423   6.132   4.422
  221DPPC   O1611016   1.464   6.054   4.507
  221DPPC   C1711017   1.506   6.220   4.329
  221DPPC   C1811018   1.451   6.363   4.319
  221DPPC   C1911019   1.347   6.388   4.210
  221DPPC   C2011020   1.401   6.352   4.071
  221DPPC   C2111021   1.295   6.351   3.961
  221DPPC   C2211022   1.366   6.298   3.837
  221DPPC   C2311023   1.274   6.301   3.715
  221DPPC   C2411024   1.349   6.235   3.598
  221DPPC   C2511025   1.262   6.248   3.472
  221DPPC   C2611026   1.131   6.170   3.486
  221DPPC   C2711027   1.041   6.173   3.363
  221DPPC   C2811028   0.977   6.310   3.336
  221DPPC   C2911029   0.939   6.341   3.191
  221DPPC   C3011030   1.040   6.439   3.132
  221DPPC   C3111031   1.043   6.555   3.232
  221DPPC   C3211032   1.086   5.995   4.341
  221DPPC   O3311033   1.048   5.859   4.368
  221DPPC   C3411034   0.929   5.839   4.306
  221DPPC   O3511035   0.852   5.932   4.281
  221DPPC   C3611036   0.878   5.697   4.326
  221DPPC   C3711037   0.851   5.630   4.191
  221DPPC   C3811038   0.778   5.496   4.206
  221DPPC   C3911039   0.782   5.387   4.100
  221DPPC   C4011040   0.710   5.432   3.972
  221DPPC   C4111041   0.761   5.332   3.868
  221DPPC   C4211042   0.703   5.373   3.733
  221DPPC   C4311043   0.550   5.361   3.726
  221DPPC   C4411044   0.490   5.359   3.585
  221DPPC   C4511045   0.342   5.319   3.583
  221DPPC   C4611046   0.278   5.362   3.450
  221DPPC   C4711047   0.145   5.291   3.426
  221DPPC   C4811048   0.087   5.322   3.287
  221DPPC   C4911049  -0.043   5.244   3.264
  221DPPC   C5011050  -0.021   5.094   3.283
  222DPPC    C111051   5.898   4.042   6.433
  222DPPC    C211052   5.716   3.911   6.442
  222DPPC    C311053   5.757   4.030   6.235
  222DPPC    N411054   5.819   3.954   6.346
  222DPPC    C511055   5.923   3.866   6.293
  222DPPC    C611056   5.904   3.718   6.258
  222DPPC    O711057   5.787   3.693   6.180
  222DPPC    P811058   5.760   3.534   6.188
  222DPPC    O911059   5.613   3.528   6.205
  222DPPC   O1011060   5.851   3.463   6.280
  222DPPC   O1111061   5.817   3.502   6.041
  222DPPC   C1211062   5.725   3.551   5.943
  222DPPC   C1311063   5.763   3.548   5.795
  222DPPC   O1411064   5.648   3.563   5.709
  222DPPC   C1511065   5.612   3.678   5.645
  222DPPC   O1611066   5.676   3.779   5.673
  222DPPC   C1711067   5.537   3.649   5.515
  222DPPC   C1811068   5.555   3.740   5.393
  222DPPC   C1911069   5.691   3.750   5.324
  222DPPC   C2011070   5.676   3.856   5.216
  222DPPC   C2111071   5.565   3.823   5.116
  222DPPC   C2211072   5.603   3.891   4.984
  222DPPC   C2311073   5.493   3.890   4.878
  222DPPC   C2411074   5.535   3.983   4.764
  222DPPC   C2511075   5.425   3.998   4.660
  222DPPC   C2611076   5.355   4.134   4.663
  222DPPC   C2711077   5.282   4.155   4.530
  222DPPC   C2811078   5.210   4.290   4.533
  222DPPC   C2911079   5.136   4.294   4.667
  222DPPC   C3011080   5.063   4.423   4.703
  222DPPC   C3111081   5.065   4.422   4.856
  222DPPC   C3211082   5.844   3.419   5.777
  222DPPC   O3311083   5.939   3.423   5.670
  222DPPC   C3411084   5.981   3.307   5.614
  222DPPC   O3511085   5.927   3.198   5.627
  222DPPC   C3611086   6.098   3.323   5.515
  222DPPC   C3711087   6.046   3.321   5.372
  222DPPC   C3811088   5.930   3.410   5.328
  222DPPC   C3911089   5.904   3.384   5.179
  222DPPC   C4011090   5.805   3.478   5.111
  222DPPC   C4111091   5.812   3.459   4.960
  222DPPC   C4211092   5.720   3.555   4.884
  222DPPC   C4311093   5.726   3.532   4.733
  222DPPC   C4411094   5.635   3.641   4.676
  222DPPC   C4511095   5.634   3.632   4.524
  222DPPC   C4611096   5.533   3.719   4.449
  222DPPC   C4711097   5.568   3.723   4.300
  222DPPC   C4811098   5.475   3.813   4.218
  222DPPC   C4911099   5.323   3.796   4.230
  222DPPC   C5011100   5.249   3.858   4.112
  223DPPC    C111101   3.492   7.360   5.918
  223DPPC    C211102   3.574   7.138   5.939
  223DPPC    C311103   3.345   7.177   5.885
  223DPPC    N411104   3.483   7.224   5.863
  223DPPC    C511105   3.544   7.218   5.729
  223DPPC    C611106   3.489   7.310   5.619
  223DPPC    O711107   3.531   7.275   5.487
  223DPPC    P811108   3.448   7.357   5.377
  223DPPC    O911109   3.526   7.479   5.349
  223DPPC   O1011110   3.312   7.355   5.434
  223DPPC   O1111111   3.473   7.237   5.272
  223DPPC   C1211112   3.593   7.263   5.199
  223DPPC   C1311113   3.657   7.144   5.126
  223DPPC   O1411114   3.765   7.196   5.048
  223DPPC   C1511115   3.880   7.123   5.047
  223DPPC   O1611116   3.887   7.020   5.113
  223DPPC   C1711117   3.999   7.173   4.965
  223DPPC   C1811118   3.954   7.233   4.832
  223DPPC   C1911119   3.896   7.126   4.739
  223DPPC   C2011120   3.871   7.178   4.597
  223DPPC   C2111121   3.832   7.081   4.486
  223DPPC   C2211122   3.961   7.032   4.420
  223DPPC   C2311123   3.946   6.945   4.295
  223DPPC   C2411124   3.914   7.040   4.179
  223DPPC   C2511125   3.929   6.973   4.043
  223DPPC   C2611126   4.074   6.956   3.995
  223DPPC   C2711127   4.074   6.899   3.853
  223DPPC   C2811128   4.026   6.753   3.853
  223DPPC   C2911129   4.068   6.682   3.724
  223DPPC   C3011130   3.995   6.548   3.715
  223DPPC   C3111131   4.043   6.478   3.587
  223DPPC   C3211132   3.542   7.074   5.053
  223DPPC   O3311133   3.468   7.140   4.950
  223DPPC   C3411134   3.366   7.071   4.891
  223DPPC   O3511135   3.333   6.965   4.944
  223DPPC   C3611136   3.302   7.126   4.763
  223DPPC   C3711137   3.400   7.131   4.646
  223DPPC   C3811138   3.336   7.162   4.510
  223DPPC   C3911139   3.439   7.192   4.402
  223DPPC   C4011140   3.391   7.221   4.259
  223DPPC   C4111141   3.513   7.252   4.172
  223DPPC   C4211142   3.468   7.316   4.040
  223DPPC   C4311143   3.596   7.334   3.958
  223DPPC   C4411144   3.557   7.371   3.815
  223DPPC   C4511145   3.674   7.397   3.720
  223DPPC   C4611146   3.625   7.414   3.576
  223DPPC   C4711147   3.743   7.455   3.488
  223DPPC   C4811148   3.698   7.469   3.343
  223DPPC   C4911149   3.821   7.442   3.255
  223DPPC   C5011150   3.787   7.467   3.108
  224DPPC    C111151   3.596   3.406   6.104
  224DPPC    C211152   3.379   3.321   6.031
  224DPPC    C311153   3.394   3.534   6.117
  224DPPC    N411154   3.469   3.437   6.036
  224DPPC    C511155   3.489   3.506   5.908
  224DPPC    C611156   3.595   3.453   5.811
  224DPPC    O711157   3.582   3.317   5.771
  224DPPC    P811158   3.723   3.255   5.723
  224DPPC    O911159   3.670   3.117   5.726
  224DPPC   O1011160   3.821   3.311   5.818
  224DPPC   O1111161   3.721   3.322   5.577
  224DPPC   C1211162   3.709   3.215   5.483
  224DPPC   C1311163   3.708   3.255   5.335
  224DPPC   O1411164   3.700   3.145   5.244
  224DPPC   C1511165   3.792   3.045   5.236
  224DPPC   O1611166   3.890   3.047   5.310
  224DPPC   C1711167   3.800   2.972   5.102
  224DPPC   C1811168   3.784   3.071   4.987
  224DPPC   C1911169   3.787   2.994   4.854
  224DPPC   C2011170   3.781   3.088   4.733
  224DPPC   C2111171   3.784   3.034   4.590
  224DPPC   C2211172   3.668   2.941   4.552
  224DPPC   C2311173   3.689   2.895   4.408
  224DPPC   C2411174   3.575   2.811   4.351
  224DPPC   C2511175   3.593   2.796   4.200
  224DPPC   C2611176   3.720   2.717   4.168
  224DPPC   C2711177   3.708   2.637   4.038
  224DPPC   C2811178   3.683   2.721   3.912
  224DPPC   C2911179   3.700   2.643   3.782
  224DPPC   C3011180   3.683   2.731   3.658
  224DPPC   C3111181   3.699   2.652   3.528
  224DPPC   C3211182   3.836   3.338   5.323
  224DPPC   O3311183   3.822   3.439   5.223
  224DPPC   C3411184   3.938   3.503   5.191
  224DPPC   O3511185   4.040   3.495   5.259
  224DPPC   C3611186   3.928   3.592   5.067
  224DPPC   C3711187   3.845   3.538   4.949
  224DPPC   C3811188   3.859   3.638   4.834
  224DPPC   C3911189   3.792   3.586   4.706
  224DPPC   C4011190   3.801   3.685   4.590
  224DPPC   C4111191   3.757   3.618   4.459
  224DPPC   C4211192   3.803   3.684   4.329
  224DPPC   C4311193   3.724   3.624   4.213
  224DPPC   C4411194   3.755   3.705   4.087
  224DPPC   C4511195   3.700   3.629   3.966
  224DPPC   C4611196   3.687   3.725   3.848
  224DPPC   C4711197   3.687   3.646   3.717
  224DPPC   C4811198   3.806   3.551   3.707
  224DPPC   C4911199   3.778   3.473   3.579
  224DPPC   C5011200   3.871   3.355   3.547
  225DPPC    C111201   9.003   3.050   5.352
  225DPPC    C211202   9.191   3.181   5.352
  225DPPC    C311203   9.089   3.114   5.560
  225DPPC    N411204   9.129   3.070   5.426
  225DPPC    C511205   9.213   2.950   5.433
  225DPPC    C611206   9.343   2.954   5.514
  225DPPC    O711207   9.437   3.058   5.485
  225DPPC    P811208   9.563   3.031   5.581
  225DPPC    O911209   9.529   2.928   5.682
  225DPPC   O1011210   9.623   3.164   5.608
  225DPPC   O1111211   9.648   2.954   5.468
  225DPPC   C1211212   9.724   3.044   5.387
  225DPPC   C1311213   9.710   3.022   5.237
  225DPPC   O1411214   9.790   3.121   5.170
  225DPPC   C1511215   9.924   3.112   5.148
  225DPPC   O1611216   9.994   3.079   5.243
  225DPPC   C1711217   9.971   3.218   5.049
  225DPPC   C1811218   9.967   3.153   4.910
  225DPPC   C1911219  10.004   3.255   4.803
  225DPPC   C2011220   9.964   3.199   4.666
  225DPPC   C2111221  10.016   3.283   4.549
  225DPPC   C2211222   9.939   3.239   4.425
  225DPPC   C2311223   9.989   3.301   4.294
  225DPPC   C2411224   9.893   3.266   4.180
  225DPPC   C2511225   9.944   3.315   4.044
  225DPPC   C2611226   9.845   3.295   3.929
  225DPPC   C2711227   9.899   3.351   3.798
  225DPPC   C2811228   9.822   3.289   3.681
  225DPPC   C2911229   9.910   3.300   3.557
  225DPPC   C3011230   9.841   3.241   3.434
  225DPPC   C3111231   9.922   3.272   3.308
  225DPPC   C3211232   9.560   3.024   5.211
  225DPPC   O3311233   9.523   2.925   5.114
  225DPPC   C3411234   9.402   2.938   5.053
  225DPPC   O3511235   9.326   3.027   5.091
  225DPPC   C3611236   9.368   2.821   4.961
  225DPPC   C3711237   9.405   2.867   4.820
  225DPPC   C3811238   9.360   2.742   4.743
  225DPPC   C3911239   9.395   2.756   4.595
  225DPPC   C4011240   9.402   2.620   4.525
  225DPPC   C4111241   9.425   2.633   4.375
  225DPPC   C4211242   9.442   2.495   4.311
  225DPPC   C4311243   9.424   2.520   4.161
  225DPPC   C4411244   9.463   2.395   4.081
  225DPPC   C4511245   9.452   2.415   3.929
  225DPPC   C4611246   9.574   2.498   3.889
  225DPPC   C4711247   9.568   2.531   3.739
  225DPPC   C4811248   9.573   2.406   3.651
  225DPPC   C4911249   9.593   2.431   3.501
  225DPPC   C5011250   9.725   2.508   3.487
  226DPPC    C111251   3.875   7.888   5.614
  226DPPC    C211252   3.846   8.118   5.591
  226DPPC    C311253   4.063   8.044   5.573
  226DPPC    N411254   3.925   8.005   5.541
  226DPPC    C511255   3.891   7.986   5.399
  226DPPC    C611256   3.974   7.891   5.311
  226DPPC    O711257   4.081   7.960   5.246
  226DPPC    P811258   4.170   7.846   5.176
  226DPPC    O911259   4.063   7.791   5.091
  226DPPC   O1011260   4.215   7.777   5.300
  226DPPC   O1111261   4.256   7.973   5.129
  226DPPC   C1211262   4.215   8.039   5.009
  226DPPC   C1311263   4.315   8.053   4.894
  226DPPC   O1411264   4.270   8.127   4.779
  226DPPC   C1511265   4.293   8.261   4.770
  226DPPC   O1611266   4.327   8.322   4.871
  226DPPC   C1711267   4.246   8.327   4.641
  226DPPC   C1811268   4.355   8.396   4.558
  226DPPC   C1911269   4.483   8.314   4.536
  226DPPC   C2011270   4.573   8.356   4.420
  226DPPC   C2111271   4.712   8.292   4.432
  226DPPC   C2211272   4.786   8.308   4.299
  226DPPC   C2311273   4.928   8.254   4.312
  226DPPC   C2411274   4.988   8.243   4.172
  226DPPC   C2511275   5.133   8.196   4.165
  226DPPC   C2611276   5.193   8.197   4.024
  226DPPC   C2711277   5.332   8.135   4.034
  226DPPC   C2811278   5.410   8.160   3.906
  226DPPC   C2911279   5.337   8.093   3.789
  226DPPC   C3011280   5.437   8.071   3.676
  226DPPC   C3111281   5.546   7.974   3.720
  226DPPC   C3211282   4.378   7.917   4.865
  226DPPC   O3311283   4.281   7.813   4.854
  226DPPC   C3411284   4.334   7.688   4.855
  226DPPC   O3511285   4.452   7.663   4.877
  226DPPC   C3611286   4.238   7.571   4.829
  226DPPC   C3711287   4.208   7.545   4.681
  226DPPC   C3811288   4.319   7.479   4.600
  226DPPC   C3911289   4.267   7.353   4.531
  226DPPC   C4011290   4.387   7.310   4.447
  226DPPC   C4111291   4.352   7.219   4.329
  226DPPC   C4211292   4.474   7.199   4.240
  226DPPC   C4311293   4.429   7.132   4.110
  226DPPC   C4411294   4.548   7.126   4.015
  226DPPC   C4511295   4.493   7.089   3.877
  226DPPC   C4611296   4.606   7.025   3.797
  226DPPC   C4711297   4.564   6.978   3.657
  226DPPC   C4811298   4.688   6.921   3.588
  226DPPC   C4911299   4.663   6.882   3.443
  226DPPC   C5011300   4.793   6.850   3.367
  227DPPC    C111301   4.746   4.066   1.573
  227DPPC    C211302   4.802   4.281   1.527
  227DPPC    C311303   4.573   4.229   1.511
  227DPPC    N411304   4.694   4.202   1.589
  227DPPC    C511305   4.676   4.245   1.729
  227DPPC    C611306   4.659   4.395   1.755
  227DPPC    O711307   4.632   4.423   1.892
  227DPPC    P811308   4.691   4.565   1.940
  227DPPC    O911309   4.619   4.607   2.062
  227DPPC   O1011310   4.706   4.650   1.819
  227DPPC   O1111311   4.843   4.527   1.978
  227DPPC   C1211312   4.848   4.517   2.120
  227DPPC   C1311313   4.984   4.460   2.159
  227DPPC   O1411314   4.993   4.385   2.280
  227DPPC   C1511315   4.926   4.267   2.294
  227DPPC   O1611316   4.867   4.223   2.196
  227DPPC   C1711317   4.918   4.203   2.433
  227DPPC   C1811318   5.034   4.109   2.467
  227DPPC   C1911319   5.034   4.086   2.619
  227DPPC   C2011320   5.138   3.990   2.676
  227DPPC   C2111321   5.111   3.964   2.824
  227DPPC   C2211322   5.219   3.885   2.898
  227DPPC   C2311323   5.191   3.837   3.040
  227DPPC   C2411324   5.328   3.844   3.107
  227DPPC   C2511325   5.279   3.791   3.242
  227DPPC   C2611326   5.388   3.771   3.348
  227DPPC   C2711327   5.320   3.750   3.483
  227DPPC   C2811328   5.418   3.739   3.601
  227DPPC   C2911329   5.356   3.691   3.732
  227DPPC   C3011330   5.306   3.548   3.713
  227DPPC   C3111331   5.256   3.508   3.852
  227DPPC   C3211332   5.087   4.571   2.136
  227DPPC   O3311333   5.077   4.666   2.243
  227DPPC   C3411334   5.187   4.745   2.256
  227DPPC   O3511335   5.260   4.763   2.159
  227DPPC   C3611336   5.203   4.839   2.376
  227DPPC   C3711337   5.327   4.798   2.455
  227DPPC   C3811338   5.362   4.886   2.576
  227DPPC   C3911339   5.282   4.857   2.703
  227DPPC   C4011340   5.323   4.949   2.818
  227DPPC   C4111341   5.264   4.926   2.957
  227DPPC   C4211342   5.360   4.987   3.059
  227DPPC   C4311343   5.284   4.984   3.192
  227DPPC   C4411344   5.352   5.047   3.314
  227DPPC   C4511345   5.288   4.989   3.441
  227DPPC   C4611346   5.386   5.022   3.554
  227DPPC   C4711347   5.350   4.934   3.674
  227DPPC   C4811348   5.456   4.961   3.782
  227DPPC   C4911349   5.409   4.867   3.892
  227DPPC   C5011350   5.492   4.878   4.020
  228DPPC    C111351   5.577   2.685   2.101
  228DPPC    C211352   5.739   2.608   1.931
  228DPPC    C311353   5.543   2.502   1.947
  228DPPC    N411354   5.599   2.637   1.964
  228DPPC    C511355   5.522   2.712   1.864
  228DPPC    C611356   5.527   2.865   1.865
  228DPPC    O711357   5.651   2.909   1.810
  228DPPC    P811358   5.639   3.065   1.774
  228DPPC    O911359   5.503   3.086   1.721
  228DPPC   O1011360   5.758   3.099   1.692
  228DPPC   O1111361   5.640   3.138   1.917
  228DPPC   C1211362   5.765   3.108   1.979
  228DPPC   C1311363   5.771   3.126   2.131
  228DPPC   O1411364   5.700   3.025   2.203
  228DPPC   C1511365   5.718   3.031   2.338
  228DPPC   O1611366   5.816   3.078   2.395
  228DPPC   C1711367   5.624   2.935   2.412
  228DPPC   C1811368   5.573   3.009   2.536
  228DPPC   C1911369   5.492   2.912   2.621
  228DPPC   C2011370   5.440   2.997   2.736
  228DPPC   C2111371   5.353   2.917   2.834
  228DPPC   C2211372   5.309   3.026   2.932
  228DPPC   C2311373   5.246   2.969   3.060
  228DPPC   C2411374   5.113   2.904   3.020
  228DPPC   C2511375   5.020   2.885   3.140
  228DPPC   C2611376   4.906   2.786   3.113
  228DPPC   C2711377   4.869   2.705   3.238
  228DPPC   C2811378   4.987   2.621   3.287
  228DPPC   C2911379   4.935   2.554   3.414
  228DPPC   C3011380   5.045   2.456   3.457
  228DPPC   C3111381   4.996   2.352   3.558
  228DPPC   C3211382   5.730   3.269   2.166
  228DPPC   O3311383   5.835   3.366   2.168
  228DPPC   C3411384   5.794   3.493   2.195
  228DPPC   O3511385   5.681   3.527   2.159
  228DPPC   C3611386   5.911   3.579   2.242
  228DPPC   C3711387   5.889   3.671   2.362
  228DPPC   C3811388   5.912   3.600   2.496
  228DPPC   C3911389   5.906   3.713   2.599
  228DPPC   C4011390   5.904   3.653   2.739
  228DPPC   C4111391   5.899   3.770   2.837
  228DPPC   C4211392   5.896   3.690   2.968
  228DPPC   C4311393   5.877   3.788   3.084
  228DPPC   C4411394   5.857   3.706   3.211
  228DPPC   C4511395   5.808   3.806   3.317
  228DPPC   C4611396   5.842   3.768   3.461
  228DPPC   C4711397   5.977   3.831   3.494
  228DPPC   C4811398   6.098   3.759   3.433
  228DPPC   C4911399   6.218   3.840   3.483
  228DPPC   C5011400   6.347   3.792   3.417
  229DPPC    C111401   3.327   3.881   2.167
  229DPPC    C211402   3.559   3.922   2.156
  229DPPC    C311403   3.466   3.797   2.345
  229DPPC    N411404   3.458   3.825   2.200
  229DPPC    C511405   3.484   3.698   2.131
  229DPPC    C611406   3.383   3.585   2.155
  229DPPC    O711407   3.440   3.458   2.120
  229DPPC    P811408   3.353   3.327   2.153
  229DPPC    O911409   3.439   3.229   2.082
  229DPPC   O1011410   3.214   3.358   2.112
  229DPPC   O1111411   3.385   3.337   2.311
  229DPPC   C1211412   3.407   3.207   2.366
  229DPPC   C1311413   3.436   3.203   2.516
  229DPPC   O1411414   3.318   3.176   2.593
  229DPPC   C1511415   3.288   3.046   2.622
  229DPPC   O1611416   3.346   2.955   2.563
  229DPPC   C1711417   3.174   3.015   2.719
  229DPPC   C1811418   3.226   2.915   2.823
  229DPPC   C1911419   3.127   2.891   2.937
  229DPPC   C2011420   3.183   2.793   3.040
  229DPPC   C2111421   3.123   2.816   3.179
  229DPPC   C2211422   3.077   2.683   3.240
  229DPPC   C2311423   3.008   2.711   3.373
  229DPPC   C2411424   2.932   2.586   3.417
  229DPPC   C2511425   2.897   2.579   3.566
  229DPPC   C2611426   2.813   2.455   3.595
  229DPPC   C2711427   2.818   2.402   3.738
  229DPPC   C2811428   2.797   2.519   3.835
  229DPPC   C2911429   2.801   2.459   3.976
  229DPPC   C3011430   2.853   2.534   4.098
  229DPPC   C3111431   2.857   2.436   4.216
  229DPPC   C3211432   3.505   3.330   2.565
  229DPPC   O3311433   3.627   3.362   2.496
  229DPPC   C3411434   3.682   3.484   2.516
  229DPPC   O3511435   3.623   3.585   2.554
  229DPPC   C3611436   3.823   3.490   2.455
  229DPPC   C3711437   3.941   3.465   2.549
  229DPPC   C3811438   3.918   3.543   2.679
  229DPPC   C3911439   4.046   3.532   2.763
  229DPPC   C4011440   4.036   3.618   2.889
  229DPPC   C4111441   4.161   3.596   2.975
  229DPPC   C4211442   4.125   3.644   3.116
  229DPPC   C4311443   4.240   3.676   3.212
  229DPPC   C4411444   4.177   3.711   3.347
  229DPPC   C4511445   4.285   3.743   3.450
  229DPPC   C4611446   4.232   3.769   3.591
  229DPPC   C4711447   4.180   3.913   3.601
  229DPPC   C4811448   4.141   3.944   3.745
  229DPPC   C4911449   4.125   4.095   3.760
  229DPPC   C5011450   4.077   4.120   3.903
  230DPPC    C111451   5.581   1.045   2.312
  230DPPC    C211452   5.420   1.033   2.497
  230DPPC    C311453   5.402   1.190   2.316
  230DPPC    N411454   5.440   1.053   2.352
  230DPPC    C511455   5.368   0.941   2.290
  230DPPC    C611456   5.391   0.891   2.147
  230DPPC    O711457   5.280   0.836   2.077
  230DPPC    P811458   5.315   0.689   2.023
  230DPPC    O911459   5.443   0.706   1.952
  230DPPC   O1011460   5.202   0.640   1.940
  230DPPC   O1111461   5.330   0.624   2.169
  230DPPC   C1211462   5.200   0.577   2.207
  230DPPC   C1311463   5.163   0.592   2.355
  230DPPC   O1411464   5.122   0.721   2.401
  230DPPC   C1511465   4.997   0.770   2.376
  230DPPC   O1611466   4.923   0.731   2.286
  230DPPC   C1711467   4.942   0.879   2.468
  230DPPC   C1811468   4.927   0.823   2.610
  230DPPC   C1911469   4.885   0.943   2.694
  230DPPC   C2011470   4.885   0.903   2.842
  230DPPC   C2111471   4.849   1.030   2.920
  230DPPC   C2211472   4.699   1.060   2.925
  230DPPC   C2311473   4.690   1.172   3.029
  230DPPC   C2411474   4.791   1.282   2.996
  230DPPC   C2511475   4.770   1.389   3.103
  230DPPC   C2611476   4.817   1.332   3.238
  230DPPC   C2711477   4.799   1.416   3.364
  230DPPC   C2811478   4.832   1.318   3.477
  230DPPC   C2911479   4.966   1.246   3.466
  230DPPC   C3011480   4.981   1.173   3.599
  230DPPC   C3111481   5.100   1.078   3.612
  230DPPC   C3211482   5.284   0.534   2.429
  230DPPC   O3311483   5.289   0.517   2.570
  230DPPC   C3411484   5.335   0.630   2.629
  230DPPC   O3511485   5.386   0.724   2.568
  230DPPC   C3611486   5.322   0.639   2.781
  230DPPC   C3711487   5.330   0.500   2.844
  230DPPC   C3811488   5.353   0.511   2.995
  230DPPC   C3911489   5.326   0.376   3.060
  230DPPC   C4011490   5.346   0.375   3.212
  230DPPC   C4111491   5.310   0.232   3.255
  230DPPC   C4211492   5.163   0.195   3.241
  230DPPC   C4311493   5.092   0.264   3.358
  230DPPC   C4411494   4.941   0.242   3.357
  230DPPC   C4511495   4.863   0.313   3.469
  230DPPC   C4611496   4.711   0.300   3.462
  230DPPC   C4711497   4.644   0.382   3.573
  230DPPC   C4811498   4.652   0.530   3.538
  230DPPC   C4911499   4.513   0.583   3.501
  230DPPC   C5011500   4.406   0.552   3.606
  231DPPC    C111501   1.124   0.155   1.799
  231DPPC    C211502   1.205   0.335   1.701
  231DPPC    C311503   1.374   0.207   1.814
  231DPPC    N411504   1.249   0.199   1.736
  231DPPC    C511505   1.276   0.124   1.613
  231DPPC    C611506   1.358  -0.005   1.610
  231DPPC    O711507   1.292  -0.112   1.679
  231DPPC    P811508   1.398  -0.229   1.712
  231DPPC    O911509   1.493  -0.186   1.817
  231DPPC   O1011510   1.420  -0.310   1.590
  231DPPC   O1111511   1.282  -0.309   1.789
  231DPPC   C1211512   1.271  -0.254   1.921
  231DPPC   C1311513   1.135  -0.276   1.987
  231DPPC   O1411514   1.115  -0.206   2.111
  231DPPC   C1511515   1.014  -0.115   2.115
  231DPPC   O1611516   0.939  -0.102   2.018
  231DPPC   C1711517   1.004  -0.021   2.236
  231DPPC   C1811518   1.040   0.123   2.200
  231DPPC   C1911519   0.991   0.226   2.303
  231DPPC   C2011520   0.839   0.243   2.301
  231DPPC   C2111521   0.802   0.360   2.392
  231DPPC   C2211522   0.855   0.343   2.534
  231DPPC   C2311523   0.822   0.462   2.623
  231DPPC   C2411524   0.855   0.423   2.767
  231DPPC   C2511525   0.814   0.546   2.848
  231DPPC   C2611526   0.850   0.532   2.996
  231DPPC   C2711527   0.810   0.654   3.080
  231DPPC   C2811528   0.816   0.616   3.228
  231DPPC   C2911529   0.819   0.744   3.313
  231DPPC   C3011530   0.835   0.714   3.462
  231DPPC   C3111531   0.717   0.635   3.518
  231DPPC   C3211532   1.116  -0.428   1.982
  231DPPC   O3311533   1.237  -0.496   2.016
  231DPPC   C3411534   1.221  -0.629   2.041
  231DPPC   O3511535   1.155  -0.696   1.962
  231DPPC   C3611536   1.326  -0.687   2.136
  231DPPC   C3711537   1.255  -0.724   2.266
  231DPPC   C3811538   1.370  -0.793   2.338
  231DPPC   C3911539   1.342  -0.868   2.469
  231DPPC   C4011540   1.475  -0.925   2.519
  231DPPC   C4111541   1.459  -1.006   2.648
  231DPPC   C4211542   1.600  -1.046   2.691
  231DPPC   C4311543   1.670  -0.914   2.725
  231DPPC   C4411544   1.792  -0.924   2.816
  231DPPC   C4511545   1.856  -0.785   2.819
  231DPPC   C4611546   1.998  -0.798   2.763
  231DPPC   C4711547   2.081  -0.670   2.778
  231DPPC   C4811548   2.215  -0.707   2.842
  231DPPC   C4911549   2.335  -0.646   2.770
  231DPPC   C5011550   2.459  -0.722   2.819
  232DPPC    C111551   7.754   6.832   1.280
  232DPPC    C211552   7.858   6.959   1.461
  232DPPC    C311553   7.635   6.993   1.405
  232DPPC    N411554   7.738   6.888   1.415
  232DPPC    C511555   7.706   6.777   1.506
  232DPPC    C611556   7.817   6.676   1.538
  232DPPC    O711557   7.767   6.557   1.600
  232DPPC    P811558   7.839   6.421   1.552
  232DPPC    O911559   7.885   6.435   1.412
  232DPPC   O1011560   7.750   6.311   1.595
  232DPPC   O1111561   7.962   6.423   1.656
  232DPPC   C1211562   7.921   6.383   1.787
  232DPPC   C1311563   8.002   6.449   1.899
  232DPPC   O1411564   8.005   6.372   2.020
  232DPPC   C1511565   8.113   6.291   2.037
  232DPPC   O1611566   8.204   6.295   1.955
  232DPPC   C1711567   8.118   6.210   2.167
  232DPPC   C1811568   8.246   6.234   2.247
  232DPPC   C1911569   8.236   6.145   2.371
  232DPPC   C2011570   8.343   6.170   2.479
  232DPPC   C2111571   8.310   6.081   2.599
  232DPPC   C2211572   8.410   6.085   2.715
  232DPPC   C2311573   8.360   6.005   2.835
  232DPPC   C2411574   8.447   6.040   2.956
  232DPPC   C2511575   8.598   6.037   2.935
  232DPPC   C2611576   8.667   6.068   3.068
  232DPPC   C2711577   8.666   5.943   3.156
  232DPPC   C2811578   8.729   5.970   3.294
  232DPPC   C2911579   8.657   6.084   3.366
  232DPPC   C3011580   8.706   6.104   3.510
  232DPPC   C3111581   8.626   6.215   3.579
  232DPPC   C3211582   7.952   6.594   1.903
  232DPPC   O3311583   7.812   6.611   1.927
  232DPPC   C3411584   7.771   6.740   1.916
  232DPPC   O3511585   7.835   6.820   1.847
  232DPPC   C3611586   7.633   6.768   1.975
  232DPPC   C3711587   7.641   6.863   2.095
  232DPPC   C3811588   7.673   6.778   2.218
  232DPPC   C3911589   7.682   6.881   2.331
  232DPPC   C4011590   7.547   6.951   2.349
  232DPPC   C4111591   7.552   7.047   2.468
  232DPPC   C4211592   7.602   6.966   2.587
  232DPPC   C4311593   7.608   7.047   2.717
  232DPPC   C4411594   7.654   6.966   2.838
  232DPPC   C4511595   7.781   6.885   2.812
  232DPPC   C4611596   7.783   6.765   2.907
  232DPPC   C4711597   7.927   6.714   2.912
  232DPPC   C4811598   7.945   6.589   2.999
  232DPPC   C4911599   7.838   6.490   2.952
  232DPPC   C5011600   7.833   6.373   3.051
  233DPPC    C111601   0.465   5.309   1.246
  233DPPC    C211602   0.637   5.145   1.249
  233DPPC    C311603   0.673   5.362   1.188
  233DPPC    N411604   0.603   5.282   1.290
  233DPPC    C511605   0.638   5.305   1.431
  233DPPC    C611606   0.624   5.449   1.479
  233DPPC    O711607   0.746   5.504   1.530
  233DPPC    P811608   0.719   5.657   1.571
  233DPPC    O911609   0.630   5.702   1.461
  233DPPC   O1011610   0.844   5.730   1.601
  233DPPC   O1111611   0.629   5.634   1.703
  233DPPC   C1211612   0.584   5.751   1.772
  233DPPC   C1311613   0.464   5.834   1.725
  233DPPC   O1411614   0.446   5.954   1.802
  233DPPC   C1511615   0.510   6.068   1.765
  233DPPC   O1611616   0.590   6.060   1.672
  233DPPC   C1711617   0.504   6.186   1.862
  233DPPC   C1811618   0.639   6.226   1.921
  233DPPC   C1911619   0.607   6.331   2.027
  233DPPC   C2011620   0.738   6.383   2.088
  233DPPC   C2111621   0.815   6.274   2.162
  233DPPC   C2211622   0.942   6.325   2.231
  233DPPC   C2311623   1.008   6.204   2.297
  233DPPC   C2411624   1.154   6.234   2.329
  233DPPC   C2511625   1.214   6.124   2.417
  233DPPC   C2611626   1.212   5.991   2.341
  233DPPC   C2711627   1.309   5.890   2.403
  233DPPC   C2811628   1.301   5.903   2.555
  233DPPC   C2911629   1.405   5.810   2.619
  233DPPC   C3011630   1.383   5.804   2.771
  233DPPC   C3111631   1.459   5.688   2.836
  233DPPC   C3211632   0.345   5.740   1.748
  233DPPC   O3311633   0.359   5.662   1.867
  233DPPC   C3411634   0.250   5.585   1.893
  233DPPC   O3511635   0.159   5.583   1.810
  233DPPC   C3611636   0.245   5.509   2.026
  233DPPC   C3711637   0.177   5.590   2.137
  233DPPC   C3811638   0.246   5.723   2.167
  233DPPC   C3911639   0.172   5.811   2.267
  233DPPC   C4011640   0.257   5.933   2.305
  233DPPC   C4111641   0.392   5.887   2.360
  233DPPC   C4211642   0.483   6.005   2.396
  233DPPC   C4311643   0.615   5.948   2.446
  233DPPC   C4411644   0.713   6.042   2.517
  233DPPC   C4511645   0.811   5.965   2.606
  233DPPC   C4611646   0.862   6.054   2.719
  233DPPC   C4711647   0.986   5.992   2.784
  233DPPC   C4811648   1.042   6.081   2.896
  233DPPC   C4911649   1.133   5.998   2.987
  233DPPC   C5011650   1.038   5.888   3.036
  234DPPC    C111651   8.587   1.828   1.118
  234DPPC    C211652   8.516   1.607   1.167
  234DPPC    C311653   8.726   1.634   1.097
  234DPPC    N411654   8.627   1.702   1.182
  234DPPC    C511655   8.676   1.714   1.320
  234DPPC    C611656   8.785   1.807   1.374
  234DPPC    O711657   8.914   1.791   1.314
  234DPPC    P811658   9.010   1.916   1.345
  234DPPC    O911659   8.913   2.024   1.316
  234DPPC   O1011660   9.128   1.886   1.260
  234DPPC   O1111661   9.031   1.867   1.497
  234DPPC   C1211662   8.985   1.965   1.591
  234DPPC   C1311663   8.956   1.891   1.722
  234DPPC   O1411664   8.932   1.983   1.829
  234DPPC   C1511665   8.832   1.945   1.914
  234DPPC   O1611666   8.723   1.908   1.871
  234DPPC   C1711667   8.843   2.003   2.055
  234DPPC   C1811668   8.990   2.020   2.093
  234DPPC   C1911669   9.018   2.032   2.243
  234DPPC   C2011670   8.974   1.909   2.324
  234DPPC   C2111671   9.004   1.923   2.473
  234DPPC   C2211672   8.946   1.798   2.540
  234DPPC   C2311673   8.938   1.831   2.690
  234DPPC   C2411674   8.826   1.753   2.758
  234DPPC   C2511675   8.823   1.787   2.908
  234DPPC   C2611676   8.700   1.733   2.980
  234DPPC   C2711677   8.695   1.758   3.131
  234DPPC   C2811678   8.568   1.701   3.195
  234DPPC   C2911679   8.573   1.698   3.348
  234DPPC   C3011680   8.437   1.648   3.396
  234DPPC   C3111681   8.434   1.649   3.549
  234DPPC   C3211682   9.087   1.819   1.753
  234DPPC   O3311683   9.092   1.715   1.851
  234DPPC   C3411684   9.034   1.592   1.843
  234DPPC   O3511685   9.013   1.550   1.730
  234DPPC   C3611686   9.040   1.500   1.965
  234DPPC   C3711687   8.929   1.560   2.053
  234DPPC   C3811688   8.929   1.480   2.184
  234DPPC   C3911689   8.805   1.519   2.264
  234DPPC   C4011690   8.787   1.456   2.402
  234DPPC   C4111691   8.641   1.488   2.434
  234DPPC   C4211692   8.597   1.428   2.567
  234DPPC   C4311693   8.464   1.485   2.616
  234DPPC   C4411694   8.435   1.413   2.748
  234DPPC   C4511695   8.331   1.501   2.818
  234DPPC   C4611696   8.305   1.433   2.953
  234DPPC   C4711697   8.427   1.397   3.038
  234DPPC   C4811698   8.394   1.333   3.172
  234DPPC   C4911699   8.517   1.293   3.254
  234DPPC   C5011700   8.477   1.196   3.366
  235DPPC    C111701   2.648   3.995   2.005
  235DPPC    C211702   2.462   4.143   1.983
  235DPPC    C311703   2.552   4.093   2.196
  235DPPC    N411704   2.587   4.119   2.056
  235DPPC    C511705   2.681   4.232   2.061
  235DPPC    C611706   2.729   4.282   1.925
  235DPPC    O711707   2.806   4.401   1.938
  235DPPC    P811708   2.848   4.447   1.789
  235DPPC    O911709   2.824   4.336   1.694
  235DPPC   O1011710   2.981   4.510   1.776
  235DPPC   O1111711   2.729   4.553   1.764
  235DPPC   C1211712   2.752   4.654   1.862
  235DPPC   C1311713   2.635   4.746   1.899
  235DPPC   O1411714   2.680   4.860   1.974
  235DPPC   C1511715   2.593   4.963   1.980
  235DPPC   O1611716   2.500   4.971   1.899
  235DPPC   C1711717   2.609   5.061   2.097
  235DPPC   C1811718   2.641   4.976   2.220
  235DPPC   C1911719   2.527   4.893   2.278
  235DPPC   C2011720   2.591   4.835   2.405
  235DPPC   C2111721   2.500   4.743   2.487
  235DPPC   C2211722   2.560   4.741   2.628
  235DPPC   C2311723   2.523   4.866   2.707
  235DPPC   C2411724   2.597   4.858   2.840
  235DPPC   C2511725   2.582   4.997   2.901
  235DPPC   C2611726   2.434   5.037   2.911
  235DPPC   C2711727   2.407   5.176   2.968
  235DPPC   C2811728   2.436   5.162   3.118
  235DPPC   C2911729   2.409   5.284   3.205
  235DPPC   C3011730   2.421   5.241   3.352
  235DPPC   C3111731   2.361   5.338   3.453
  235DPPC   C3211732   2.522   4.655   1.948
  235DPPC   O3311733   2.525   4.577   2.067
  235DPPC   C3411734   2.411   4.513   2.104
  235DPPC   O3511735   2.334   4.488   2.012
  235DPPC   C3611736   2.417   4.447   2.242
  235DPPC   C3711737   2.285   4.377   2.275
  235DPPC   C3811738   2.293   4.295   2.404
  235DPPC   C3911739   2.341   4.366   2.530
  235DPPC   C4011740   2.327   4.281   2.657
  235DPPC   C4111741   2.374   4.345   2.788
  235DPPC   C4211742   2.280   4.451   2.845
  235DPPC   C4311743   2.360   4.513   2.960
  235DPPC   C4411744   2.254   4.599   3.028
  235DPPC   C4511745   2.304   4.655   3.162
  235DPPC   C4611746   2.238   4.786   3.207
  235DPPC   C4711747   2.300   4.840   3.336
  235DPPC   C4811748   2.285   4.736   3.448
  235DPPC   C4911749   2.347   4.797   3.574
  235DPPC   C5011750   2.493   4.836   3.549
  236DPPC    C111751   0.326   1.077   1.225
  236DPPC    C211752   0.193   1.203   1.067
  236DPPC    C311753   0.091   1.037   1.206
  236DPPC    N411754   0.196   1.141   1.201
  236DPPC    C511755   0.170   1.233   1.312
  236DPPC    C611756   0.236   1.371   1.319
  236DPPC    O711757   0.379   1.365   1.330
  236DPPC    P811758   0.445   1.512   1.327
  236DPPC    O911759   0.367   1.587   1.226
  236DPPC   O1011760   0.591   1.488   1.322
  236DPPC   O1111761   0.384   1.561   1.468
  236DPPC   C1211762   0.453   1.502   1.578
  236DPPC   C1311763   0.430   1.587   1.703
  236DPPC   O1411764   0.527   1.570   1.808
  236DPPC   C1511765   0.561   1.671   1.893
  236DPPC   O1611766   0.536   1.786   1.859
  236DPPC   C1711767   0.674   1.651   1.994
  236DPPC   C1811768   0.644   1.745   2.111
  236DPPC   C1911769   0.752   1.725   2.217
  236DPPC   C2011770   0.730   1.822   2.333
  236DPPC   C2111771   0.620   1.767   2.424
  236DPPC   C2211772   0.630   1.821   2.566
  236DPPC   C2311773   0.533   1.741   2.654
  236DPPC   C2411774   0.391   1.740   2.598
  236DPPC   C2511775   0.296   1.713   2.715
  236DPPC   C2611776   0.344   1.578   2.769
  236DPPC   C2711777   0.259   1.533   2.888
  236DPPC   C2811778   0.246   1.631   3.006
  236DPPC   C2911779   0.139   1.575   3.099
  236DPPC   C3011780   0.138   1.651   3.232
  236DPPC   C3111781   0.016   1.625   3.321
  236DPPC   C3211782   0.285   1.552   1.736
  236DPPC   O3311783   0.272   1.411   1.754
  236DPPC   C3411784   0.145   1.362   1.747
  236DPPC   O3511785   0.054   1.430   1.698
  236DPPC   C3611786   0.116   1.222   1.800
  236DPPC   C3711787   0.107   1.219   1.953
  236DPPC   C3811788  -0.040   1.242   1.991
  236DPPC   C3911789  -0.076   1.192   2.131
  236DPPC   C4011790  -0.219   1.215   2.180
  236DPPC   C4111791  -0.227   1.172   2.326
  236DPPC   C4211792  -0.207   1.021   2.341
  236DPPC   C4311793  -0.212   0.978   2.488
  236DPPC   C4411794  -0.202   0.827   2.506
  236DPPC   C4511795  -0.201   0.811   2.659
  236DPPC   C4611796  -0.168   0.670   2.707
  236DPPC   C4711797  -0.176   0.659   2.860
  236DPPC   C4811798  -0.049   0.720   2.921
  236DPPC   C4911799  -0.060   0.732   3.073
  236DPPC   C5011800   0.064   0.802   3.129
  237DPPC    C111801   7.419   7.677   1.743
  237DPPC    C211802   7.631   7.565   1.768
  237DPPC    C311803   7.476   7.494   1.621
  237DPPC    N411804   7.534   7.619   1.671
  237DPPC    C511805   7.604   7.689   1.562
  237DPPC    C611806   7.646   7.835   1.582
  237DPPC    O711807   7.537   7.928   1.585
  237DPPC    P811808   7.593   8.077   1.612
  237DPPC    O911809   7.496   8.178   1.566
  237DPPC   O1011810   7.736   8.076   1.576
  237DPPC   O1111811   7.573   8.061   1.771
  237DPPC   C1211812   7.438   8.065   1.818
  237DPPC   C1311813   7.433   8.081   1.971
  237DPPC   O1411814   7.433   8.215   2.021
  237DPPC   C1511815   7.322   8.293   2.006
  237DPPC   O1611816   7.222   8.241   1.956
  237DPPC   C1711817   7.333   8.439   2.050
  237DPPC   C1811818   7.425   8.440   2.172
  237DPPC   C1911819   7.434   8.579   2.236
  237DPPC   C2011820   7.498   8.568   2.374
  237DPPC   C2111821   7.391   8.538   2.479
  237DPPC   C2211822   7.457   8.554   2.616
  237DPPC   C2311823   7.361   8.539   2.734
  237DPPC   C2411824   7.423   8.598   2.860
  237DPPC   C2511825   7.439   8.749   2.841
  237DPPC   C2611826   7.535   8.797   2.950
  237DPPC   C2711827   7.526   8.736   3.091
  237DPPC   C2811828   7.632   8.788   3.188
  237DPPC   C2911829   7.777   8.772   3.141
  237DPPC   C3011830   7.865   8.837   3.248
  237DPPC   C3111831   7.835   8.986   3.260
  237DPPC   C3211832   7.528   7.974   2.025
  237DPPC   O3311833   7.454   7.855   2.049
  237DPPC   C3411834   7.533   7.759   2.104
  237DPPC   O3511835   7.651   7.742   2.072
  237DPPC   C3611836   7.472   7.647   2.188
  237DPPC   C3711837   7.469   7.683   2.337
  237DPPC   C3811838   7.437   7.566   2.431
  237DPPC   C3911839   7.418   7.609   2.576
  237DPPC   C4011840   7.369   7.493   2.664
  237DPPC   C4111841   7.307   7.557   2.788
  237DPPC   C4211842   7.248   7.446   2.875
  237DPPC   C4311843   7.348   7.337   2.915
  237DPPC   C4411844   7.458   7.405   2.997
  237DPPC   C4511845   7.558   7.301   3.049
  237DPPC   C4611846   7.651   7.370   3.149
  237DPPC   C4711847   7.770   7.276   3.172
  237DPPC   C4811848   7.730   7.136   3.219
  237DPPC   C4911849   7.858   7.062   3.181
  237DPPC   C5011850   7.970   7.108   3.275
  238DPPC    C111851   3.319   2.018   2.455
  238DPPC    C211852   3.396   2.076   2.239
  238DPPC    C311853   3.164   2.029   2.266
  238DPPC    N411854   3.282   2.088   2.331
  238DPPC    C511855   3.227   2.222   2.353
  238DPPC    C611856   3.303   2.316   2.446
  238DPPC    O711857   3.403   2.392   2.376
  238DPPC    P811858   3.476   2.498   2.473
  238DPPC    O911859   3.401   2.519   2.599
  238DPPC   O1011860   3.542   2.609   2.401
  238DPPC   O1111861   3.592   2.389   2.500
  238DPPC   C1211862   3.587   2.368   2.642
  238DPPC   C1311863   3.637   2.238   2.704
  238DPPC   O1411864   3.588   2.224   2.838
  238DPPC   C1511865   3.576   2.100   2.893
  238DPPC   O1611866   3.573   1.999   2.822
  238DPPC   C1711867   3.541   2.088   3.041
  238DPPC   C1811868   3.661   2.064   3.133
  238DPPC   C1911869   3.638   2.068   3.284
  238DPPC   C2011870   3.581   2.198   3.340
  238DPPC   C2111871   3.559   2.177   3.490
  238DPPC   C2211872   3.501   2.307   3.547
  238DPPC   C2311873   3.508   2.300   3.700
  238DPPC   C2411874   3.648   2.272   3.757
  238DPPC   C2511875   3.632   2.256   3.908
  238DPPC   C2611876   3.578   2.130   3.976
  238DPPC   C2711877   3.608   2.132   4.126
  238DPPC   C2811878   3.513   2.223   4.204
  238DPPC   C2911879   3.537   2.204   4.353
  238DPPC   C3011880   3.496   2.063   4.394
  238DPPC   C3111881   3.502   2.023   4.542
  238DPPC   C3211882   3.789   2.243   2.689
  238DPPC   O3311883   3.855   2.369   2.704
  238DPPC   C3411884   3.989   2.375   2.686
  238DPPC   O3511885   4.052   2.272   2.662
  238DPPC   C3611886   4.056   2.513   2.688
  238DPPC   C3711887   4.129   2.547   2.818
  238DPPC   C3811888   4.216   2.673   2.808
  238DPPC   C3911889   4.301   2.688   2.934
  238DPPC   C4011890   4.208   2.681   3.055
  238DPPC   C4111891   4.275   2.686   3.193
  238DPPC   C4211892   4.171   2.656   3.301
  238DPPC   C4311893   4.215   2.652   3.447
  238DPPC   C4411894   4.112   2.643   3.561
  238DPPC   C4511895   4.034   2.512   3.556
  238DPPC   C4611896   4.097   2.394   3.631
  238DPPC   C4711897   4.008   2.270   3.618
  238DPPC   C4811898   4.037   2.151   3.709
  238DPPC   C4911899   4.145   2.063   3.646
  238DPPC   C5011900   4.090   2.029   3.507
  239DPPC    C111901   3.349   2.578   2.118
  239DPPC    C211902   3.529   2.675   1.986
  239DPPC    C311903   3.363   2.531   1.891
  239DPPC    N411904   3.386   2.638   1.989
  239DPPC    C511905   3.318   2.763   1.953
  239DPPC    C611906   3.166   2.747   1.938
  239DPPC    O711907   3.098   2.841   1.855
  239DPPC    P811908   2.949   2.787   1.827
  239DPPC    O911909   2.980   2.648   1.789
  239DPPC   O1011910   2.898   2.885   1.728
  239DPPC   O1111911   2.900   2.810   1.979
  239DPPC   C1211912   2.778   2.885   1.982
  239DPPC   C1311913   2.665   2.783   1.994
  239DPPC   O1411914   2.530   2.823   1.966
  239DPPC   C1511915   2.426   2.736   1.966
  239DPPC   O1611916   2.431   2.614   1.953
  239DPPC   C1711917   2.288   2.800   1.986
  239DPPC   C1811918   2.234   2.769   2.126
  239DPPC   C1911919   2.110   2.855   2.150
  239DPPC   C2011920   2.043   2.841   2.286
  239DPPC   C2111921   2.135   2.901   2.393
  239DPPC   C2211922   2.050   2.895   2.520
  239DPPC   C2311923   2.112   2.989   2.624
  239DPPC   C2411924   2.039   2.988   2.758
  239DPPC   C2511925   1.912   3.073   2.756
  239DPPC   C2611926   1.847   3.097   2.893
  239DPPC   C2711927   1.944   3.157   2.995
  239DPPC   C2811928   1.861   3.168   3.123
  239DPPC   C2911929   1.938   3.268   3.210
  239DPPC   C3011930   1.847   3.306   3.326
  239DPPC   C3111931   1.745   3.409   3.275
  239DPPC   C3211932   2.694   2.749   2.140
  239DPPC   O3311933   2.663   2.847   2.239
  239DPPC   C3411934   2.657   2.800   2.367
  239DPPC   O3511935   2.673   2.682   2.396
  239DPPC   C3611936   2.616   2.905   2.471
  239DPPC   C3711937   2.603   2.835   2.607
  239DPPC   C3811938   2.505   2.913   2.694
  239DPPC   C3911939   2.504   2.853   2.835
  239DPPC   C4011940   2.428   2.942   2.934
  239DPPC   C4111941   2.484   2.911   3.073
  239DPPC   C4211942   2.402   2.985   3.178
  239DPPC   C4311943   2.441   2.964   3.324
  239DPPC   C4411944   2.348   3.020   3.433
  239DPPC   C4511945   2.379   3.163   3.477
  239DPPC   C4611946   2.260   3.235   3.540
  239DPPC   C4711947   2.273   3.277   3.687
  239DPPC   C4811948   2.139   3.314   3.750
  239DPPC   C4911949   2.166   3.369   3.890
  239DPPC   C5011950   2.211   3.255   3.981
  240DPPC    C111951   1.312   4.651   1.327
  240DPPC    C211952   1.514   4.665   1.213
  240DPPC    C311953   1.296   4.704   1.105
  240DPPC    N411954   1.382   4.727   1.223
  240DPPC    C511955   1.393   4.872   1.245
  240DPPC    C611956   1.453   4.908   1.381
  240DPPC    O711957   1.358   4.948   1.480
  240DPPC    P811958   1.448   4.975   1.611
  240DPPC    O911959   1.357   5.052   1.699
  240DPPC   O1011960   1.569   5.040   1.555
  240DPPC   O1111961   1.462   4.818   1.642
  240DPPC   C1211962   1.353   4.775   1.724
  240DPPC   C1311963   1.313   4.628   1.736
  240DPPC   O1411964   1.192   4.604   1.809
  240DPPC   C1511965   1.079   4.572   1.741
  240DPPC   O1611966   1.093   4.560   1.619
  240DPPC   C1711967   0.945   4.548   1.811
  240DPPC   C1811968   0.888   4.667   1.888
  240DPPC   C1911969   0.743   4.633   1.923
  240DPPC   C2011970   0.704   4.753   2.009
  240DPPC   C2111971   0.632   4.695   2.131
  240DPPC   C2211972   0.592   4.811   2.222
  240DPPC   C2311973   0.730   4.866   2.260
  240DPPC   C2411974   0.709   4.971   2.370
  240DPPC   C2511975   0.853   5.006   2.411
  240DPPC   C2611976   0.937   5.087   2.312
  240DPPC   C2711977   1.072   5.095   2.384
  240DPPC   C2811978   1.038   5.146   2.524
  240DPPC   C2911979   1.162   5.198   2.598
  240DPPC   C3011980   1.130   5.234   2.743
  240DPPC   C3111981   1.218   5.346   2.799
  240DPPC   C3211982   1.441   4.563   1.788
  240DPPC   O3311983   1.483   4.604   1.919
  240DPPC   C3411984   1.564   4.514   1.979
  240DPPC   O3511985   1.614   4.422   1.914
  240DPPC   C3611986   1.593   4.531   2.129
  240DPPC   C3711987   1.493   4.628   2.193
  240DPPC   C3811988   1.521   4.609   2.342
  240DPPC   C3911989   1.551   4.464   2.380
  240DPPC   C4011990   1.559   4.434   2.530
  240DPPC   C4111991   1.429   4.449   2.610
  240DPPC   C4211992   1.463   4.438   2.759
  240DPPC   C4311993   1.343   4.491   2.837
  240DPPC   C4411994   1.359   4.500   2.989
  240DPPC   C4511995   1.253   4.592   3.050
  240DPPC   C4611996   1.285   4.597   3.199
  240DPPC   C4711997   1.413   4.674   3.234
  240DPPC   C4811998   1.428   4.682   3.386
  240DPPC   C4911999   1.538   4.781   3.420
  240DPPC   C5012000   1.535   4.831   3.565
  241DPPC    C112001   3.086   3.173   1.855
  241DPPC    C212002   3.290   3.213   1.761
  241DPPC    C312003   3.093   3.232   1.629
  241DPPC    N412004   3.152   3.264   1.760
  241DPPC    C512005   3.150   3.409   1.780
  241DPPC    C612006   3.009   3.459   1.811
  241DPPC    O712007   3.012   3.602   1.814
  241DPPC    P812008   2.860   3.639   1.853
  241DPPC    O912009   2.775   3.538   1.788
  241DPPC   O1012010   2.826   3.782   1.834
  241DPPC   O1112011   2.864   3.604   2.010
  241DPPC   C1212012   2.945   3.712   2.057
  241DPPC   C1312013   2.943   3.720   2.210
  241DPPC   O1412014   3.024   3.830   2.253
  241DPPC   C1512015   2.964   3.949   2.281
  241DPPC   O1612016   2.889   3.996   2.196
  241DPPC   C1712017   3.036   4.034   2.385
  241DPPC   C1812018   3.125   3.969   2.492
  241DPPC   C1912019   3.182   4.083   2.576
  241DPPC   C2012020   3.300   4.041   2.663
  241DPPC   C2112021   3.262   3.946   2.777
  241DPPC   C2212022   3.383   3.937   2.871
  241DPPC   C2312023   3.409   3.791   2.908
  241DPPC   C2412024   3.528   3.797   3.004
  241DPPC   C2512025   3.573   3.663   3.063
  241DPPC   C2612026   3.693   3.683   3.155
  241DPPC   C2712027   3.740   3.545   3.202
  241DPPC   C2812028   3.752   3.444   3.088
  241DPPC   C2912029   3.809   3.316   3.150
  241DPPC   C3012030   3.833   3.213   3.039
  241DPPC   C3112031   3.706   3.206   2.954
  241DPPC   C3212032   3.005   3.587   2.254
  241DPPC   O3312033   3.002   3.554   2.393
  241DPPC   C3412034   3.105   3.595   2.471
  241DPPC   O3512035   3.217   3.633   2.436
  241DPPC   C3612036   3.073   3.558   2.616
  241DPPC   C3712037   3.183   3.476   2.683
  241DPPC   C3812038   3.145   3.438   2.826
  241DPPC   C3912039   3.247   3.348   2.896
  241DPPC   C4012040   3.192   3.322   3.036
  241DPPC   C4112041   3.283   3.242   3.130
  241DPPC   C4212042   3.209   3.214   3.260
  241DPPC   C4312043   3.299   3.132   3.353
  241DPPC   C4412044   3.254   3.172   3.493
  241DPPC   C4512045   3.240   3.324   3.503
  241DPPC   C4612046   3.143   3.345   3.619
  241DPPC   C4712047   3.103   3.485   3.667
  241DPPC   C4812048   2.978   3.480   3.755
  241DPPC   C4912049   2.941   3.621   3.802
  241DPPC   C5012050   2.813   3.622   3.885
  242DPPC    C112051   5.274   5.121   1.949
  242DPPC    C212052   5.269   5.104   1.719
  242DPPC    C312053   5.095   5.223   1.825
  242DPPC    N412054   5.239   5.198   1.828
  242DPPC    C512055   5.321   5.319   1.823
  242DPPC    C612056   5.293   5.426   1.929
  242DPPC    O712057   5.388   5.533   1.938
  242DPPC    P812058   5.316   5.677   1.938
  242DPPC    O912059   5.184   5.640   1.993
  242DPPC   O1012060   5.328   5.747   1.809
  242DPPC   O1112061   5.420   5.752   2.036
  242DPPC   C1212062   5.485   5.665   2.129
  242DPPC   C1312063   5.580   5.750   2.214
  242DPPC   O1412064   5.670   5.689   2.308
  242DPPC   C1512065   5.777   5.619   2.261
  242DPPC   O1612066   5.812   5.624   2.144
  242DPPC   C1712067   5.851   5.532   2.363
  242DPPC   C1812068   5.782   5.522   2.499
  242DPPC   C1912069   5.865   5.587   2.611
  242DPPC   C2012070   5.805   5.566   2.750
  242DPPC   C2112071   5.916   5.590   2.852
  242DPPC   C2212072   5.861   5.619   2.992
  242DPPC   C2312073   5.957   5.640   3.110
  242DPPC   C2412074   6.043   5.514   3.126
  242DPPC   C2512075   6.103   5.513   3.267
  242DPPC   C2612076   6.196   5.394   3.287
  242DPPC   C2712077   6.119   5.262   3.287
  242DPPC   C2812078   6.213   5.147   3.326
  242DPPC   C2912079   6.137   5.014   3.331
  242DPPC   C3012080   6.234   4.901   3.368
  242DPPC   C3112081   6.154   4.770   3.375
  242DPPC   C3212082   5.478   5.852   2.265
  242DPPC   O3312083   5.372   5.797   2.344
  242DPPC   C3412084   5.279   5.889   2.382
  242DPPC   O3512085   5.306   6.004   2.346
  242DPPC   C3612086   5.175   5.855   2.489
  242DPPC   C3712087   5.044   5.805   2.428
  242DPPC   C3812088   4.945   5.736   2.522
  242DPPC   C3912089   5.002   5.609   2.586
  242DPPC   C4012090   4.883   5.535   2.647
  242DPPC   C4112091   4.940   5.402   2.698
  242DPPC   C4212092   4.823   5.304   2.703
  242DPPC   C4312093   4.877   5.170   2.753
  242DPPC   C4412094   4.774   5.058   2.764
  242DPPC   C4512095   4.651   5.106   2.842
  242DPPC   C4612096   4.580   4.983   2.897
  242DPPC   C4712097   4.519   4.904   2.780
  242DPPC   C4812098   4.463   4.765   2.812
  242DPPC   C4912099   4.372   4.728   2.694
  242DPPC   C5012100   4.261   4.832   2.678
  243DPPC    C112101   8.294   6.144   1.635
  243DPPC    C212102   8.449   6.065   1.807
  243DPPC    C312103   8.224   5.970   1.763
  243DPPC    N412104   8.347   6.028   1.707
  243DPPC    C512105   8.396   5.916   1.625
  243DPPC    C612106   8.509   5.947   1.526
  243DPPC    O712107   8.565   5.832   1.462
  243DPPC    P812108   8.703   5.878   1.394
  243DPPC    O912109   8.710   6.014   1.336
  243DPPC   O1012110   8.752   5.758   1.322
  243DPPC   O1112111   8.787   5.904   1.529
  243DPPC   C1212112   8.847   5.781   1.571
  243DPPC   C1312113   8.852   5.750   1.721
  243DPPC   O1412114   8.753   5.657   1.765
  243DPPC   C1512115   8.763   5.522   1.746
  243DPPC   O1612116   8.831   5.479   1.653
  243DPPC   C1712117   8.651   5.450   1.821
  243DPPC   C1812118   8.700   5.433   1.964
  243DPPC   C1912119   8.597   5.382   2.065
  243DPPC   C2012120   8.478   5.478   2.080
  243DPPC   C2112121   8.409   5.409   2.198
  243DPPC   C2212122   8.503   5.388   2.317
  243DPPC   C2312123   8.484   5.253   2.385
  243DPPC   C2412124   8.557   5.229   2.518
  243DPPC   C2512125   8.550   5.077   2.528
  243DPPC   C2612126   8.628   5.030   2.651
  243DPPC   C2712127   8.562   5.093   2.774
  243DPPC   C2812128   8.629   5.058   2.908
  243DPPC   C2912129   8.573   5.123   3.034
  243DPPC   C3012130   8.659   5.075   3.151
  243DPPC   C3112131   8.614   5.141   3.282
  243DPPC   C3212132   8.847   5.888   1.788
  243DPPC   O3312133   8.839   5.890   1.930
  243DPPC   C3412134   8.801   6.011   1.982
  243DPPC   O3512135   8.773   6.105   1.909
  243DPPC   C3612136   8.770   6.003   2.132
  243DPPC   C3712137   8.856   5.899   2.204
  243DPPC   C3812138   8.814   5.880   2.350
  243DPPC   C3912139   8.841   6.010   2.425
  243DPPC   C4012140   8.821   5.980   2.574
  243DPPC   C4112141   8.856   6.101   2.660
  243DPPC   C4212142   8.775   6.221   2.609
  243DPPC   C4312143   8.798   6.326   2.718
  243DPPC   C4412144   8.946   6.364   2.706
  243DPPC   C4512145   8.981   6.476   2.805
  243DPPC   C4612146   9.130   6.496   2.832
  243DPPC   C4712147   9.169   6.351   2.864
  243DPPC   C4812148   9.294   6.343   2.953
  243DPPC   C4912149   9.363   6.208   2.974
  243DPPC   C5012150   9.297   6.122   3.082
  244DPPC    C112151   6.736   2.991   1.663
  244DPPC    C212152   6.860   2.807   1.579
  244DPPC    C312153   6.913   3.026   1.500
  244DPPC    N412154   6.869   2.948   1.617
  244DPPC    C512155   6.964   2.978   1.725
  244DPPC    C612156   7.103   2.915   1.735
  244DPPC    O712157   7.100   2.792   1.808
  244DPPC    P812158   7.238   2.712   1.791
  244DPPC    O912159   7.342   2.796   1.727
  244DPPC   O1012160   7.186   2.594   1.718
  244DPPC   O1112161   7.261   2.674   1.946
  244DPPC   C1212162   7.163   2.579   1.988
  244DPPC   C1312163   7.174   2.549   2.137
  244DPPC   O1412164   7.116   2.657   2.211
  244DPPC   C1512165   6.997   2.628   2.270
  244DPPC   O1612166   6.925   2.541   2.222
  244DPPC   C1712167   6.938   2.733   2.365
  244DPPC   C1812168   6.912   2.688   2.508
  244DPPC   C1912169   7.046   2.668   2.578
  244DPPC   C2012170   7.031   2.627   2.724
  244DPPC   C2112171   7.164   2.619   2.800
  244DPPC   C2212172   7.136   2.580   2.945
  244DPPC   C2312173   7.268   2.548   3.016
  244DPPC   C2412174   7.255   2.561   3.167
  244DPPC   C2512175   7.182   2.691   3.202
  244DPPC   C2612176   7.161   2.712   3.353
  244DPPC   C2712177   7.291   2.714   3.434
  244DPPC   C2812178   7.267   2.723   3.585
  244DPPC   C2912179   7.396   2.715   3.667
  244DPPC   C3012180   7.368   2.704   3.817
  244DPPC   C3112181   7.292   2.824   3.874
  244DPPC   C3212182   7.321   2.523   2.170
  244DPPC   O3312183   7.357   2.471   2.298
  244DPPC   C3412184   7.406   2.567   2.380
  244DPPC   O3512185   7.415   2.686   2.347
  244DPPC   C3612186   7.449   2.513   2.517
  244DPPC   C3712187   7.594   2.467   2.501
  244DPPC   C3812188   7.648   2.384   2.618
  244DPPC   C3912189   7.659   2.448   2.757
  244DPPC   C4012190   7.766   2.375   2.838
  244DPPC   C4112191   7.812   2.454   2.960
  244DPPC   C4212192   7.762   2.394   3.091
  244DPPC   C4312193   7.826   2.473   3.206
  244DPPC   C4412194   7.764   2.426   3.338
  244DPPC   C4512195   7.612   2.446   3.334
  244DPPC   C4612196   7.531   2.400   3.456
  244DPPC   C4712197   7.561   2.259   3.506
  244DPPC   C4812198   7.495   2.230   3.641
  244DPPC   C4912199   7.561   2.320   3.746
  244DPPC   C5012200   7.471   2.294   3.868
  245DPPC    C112201   5.442   3.533   1.627
  245DPPC    C212202   5.507   3.425   1.827
  245DPPC    C312203   5.646   3.594   1.746
  245DPPC    N412204   5.504   3.555   1.759
  245DPPC    C512205   5.441   3.659   1.842
  245DPPC    C612206   5.393   3.788   1.776
  245DPPC    O712207   5.491   3.891   1.767
  245DPPC    P812208   5.403   4.022   1.730
  245DPPC    O912209   5.321   3.983   1.613
  245DPPC   O1012210   5.483   4.145   1.715
  245DPPC   O1112211   5.310   4.030   1.862
  245DPPC   C1212212   5.382   4.076   1.977
  245DPPC   C1312213   5.291   4.116   2.093
  245DPPC   O1412214   5.354   4.185   2.202
  245DPPC   C1512215   5.364   4.321   2.203
  245DPPC   O1612216   5.353   4.386   2.099
  245DPPC   C1712217   5.439   4.366   2.328
  245DPPC   C1812218   5.348   4.354   2.451
  245DPPC   C1912219   5.412   4.432   2.565
  245DPPC   C2012220   5.334   4.428   2.697
  245DPPC   C2112221   5.398   4.513   2.807
  245DPPC   C2212222   5.294   4.512   2.918
  245DPPC   C2312223   5.366   4.573   3.039
  245DPPC   C2412224   5.264   4.564   3.153
  245DPPC   C2512225   5.327   4.609   3.285
  245DPPC   C2612226   5.245   4.553   3.401
  245DPPC   C2712227   5.330   4.542   3.528
  245DPPC   C2812228   5.250   4.504   3.653
  245DPPC   C2912229   5.331   4.505   3.783
  245DPPC   C3012230   5.255   4.452   3.905
  245DPPC   C3112231   5.353   4.447   4.023
  245DPPC   C3212232   5.210   3.991   2.124
  245DPPC   O3312233   5.296   3.890   2.178
  245DPPC   C3412234   5.233   3.769   2.181
  245DPPC   O3512235   5.120   3.762   2.135
  245DPPC   C3612236   5.322   3.651   2.221
  245DPPC   C3712237   5.316   3.601   2.365
  245DPPC   C3812238   5.436   3.512   2.398
  245DPPC   C3912239   5.444   3.476   2.546
  245DPPC   C4012240   5.565   3.389   2.583
  245DPPC   C4112241   5.553   3.331   2.724
  245DPPC   C4212242   5.690   3.290   2.778
  245DPPC   C4312243   5.670   3.277   2.929
  245DPPC   C4412244   5.625   3.416   2.976
  245DPPC   C4512245   5.633   3.419   3.129
  245DPPC   C4612246   5.557   3.306   3.198
  245DPPC   C4712247   5.565   3.315   3.351
  245DPPC   C4812248   5.480   3.212   3.425
  245DPPC   C4912249   5.499   3.237   3.575
  245DPPC   C5012250   5.646   3.241   3.616
  246DPPC    C112251   9.296   7.897   1.472
  246DPPC    C212252   9.466   8.024   1.559
  246DPPC    C312253   9.297   7.936   1.704
  246DPPC    N412254   9.384   7.906   1.589
  246DPPC    C512255   9.474   7.790   1.586
  246DPPC    C612256   9.547   7.735   1.708
  246DPPC    O712257   9.645   7.834   1.741
  246DPPC    P812258   9.738   7.770   1.855
  246DPPC    O912259   9.855   7.860   1.870
  246DPPC   O1012260   9.747   7.623   1.849
  246DPPC   O1112261   9.625   7.808   1.963
  246DPPC   C1212262   9.635   7.945   2.002
  246DPPC   C1312263   9.504   8.023   2.013
  246DPPC   O1412264   9.534   8.160   2.045
  246DPPC   C1512265   9.578   8.252   1.956
  246DPPC   O1612266   9.565   8.219   1.838
  246DPPC   C1712267   9.654   8.376   2.005
  246DPPC   C1812268   9.602   8.453   2.126
  246DPPC   C1912269   9.688   8.575   2.162
  246DPPC   C2012270   9.837   8.548   2.181
  246DPPC   C2112271   9.892   8.506   2.318
  246DPPC   C2212272  10.045   8.503   2.319
  246DPPC   C2312273  10.106   8.492   2.459
  246DPPC   C2412274  10.037   8.373   2.526
  246DPPC   C2512275  10.046   8.376   2.679
  246DPPC   C2612276   9.960   8.267   2.743
  246DPPC   C2712277   9.979   8.262   2.895
  246DPPC   C2812278  10.114   8.210   2.943
  246DPPC   C2912279  10.121   8.071   2.879
  246DPPC   C3012280  10.243   8.000   2.938
  246DPPC   C3112281  10.243   7.865   2.866
  246DPPC   C3212282   9.394   7.974   2.107
  246DPPC   O3312283   9.316   7.868   2.052
  246DPPC   C3412284   9.232   7.816   2.146
  246DPPC   O3512285   9.248   7.843   2.265
  246DPPC   C3612286   9.149   7.703   2.085
  246DPPC   C3712287   9.001   7.703   2.125
  246DPPC   C3812288   8.980   7.630   2.258
  246DPPC   C3912289   8.835   7.632   2.308
  246DPPC   C4012290   8.824   7.567   2.446
  246DPPC   C4112291   8.874   7.668   2.550
  246DPPC   C4212292   8.842   7.619   2.692
  246DPPC   C4312293   8.926   7.694   2.795
  246DPPC   C4412294   8.884   7.651   2.936
  246DPPC   C4512295   9.005   7.623   3.025
  246DPPC   C4612296   9.079   7.754   3.052
  246DPPC   C4712297   9.197   7.746   3.150
  246DPPC   C4812298   9.277   7.875   3.162
  246DPPC   C4912299   9.327   7.926   3.027
  246DPPC   C5012300   9.421   8.047   3.027
  247DPPC    C112301   7.079   1.211   1.092
  247DPPC    C212302   7.321   1.229   1.109
  247DPPC    C312303   7.206   1.093   1.265
  247DPPC    N412304   7.205   1.141   1.126
  247DPPC    C512305   7.194   1.026   1.035
  247DPPC    C612306   7.310   0.927   1.026
  247DPPC    O712307   7.343   0.862   1.149
  247DPPC    P812308   7.503   0.873   1.159
  247DPPC    O912309   7.521   0.978   1.262
  247DPPC   O1012310   7.570   0.884   1.028
  247DPPC   O1112311   7.529   0.729   1.226
  247DPPC   C1212312   7.518   0.753   1.367
  247DPPC   C1312313   7.526   0.630   1.457
  247DPPC   O1412314   7.489   0.661   1.593
  247DPPC   C1512315   7.358   0.652   1.627
  247DPPC   O1612316   7.261   0.646   1.552
  247DPPC   C1712317   7.336   0.682   1.776
  247DPPC   C1812318   7.418   0.805   1.813
  247DPPC   C1912319   7.403   0.833   1.963
  247DPPC   C2012320   7.488   0.945   2.024
  247DPPC   C2112321   7.441   0.989   2.163
  247DPPC   C2212322   7.436   0.871   2.260
  247DPPC   C2312323   7.356   0.903   2.387
  247DPPC   C2412324   7.414   1.033   2.443
  247DPPC   C2512325   7.414   1.030   2.596
  247DPPC   C2612326   7.481   1.141   2.677
  247DPPC   C2712327   7.474   1.110   2.827
  247DPPC   C2812328   7.555   1.211   2.909
  247DPPC   C2912329   7.520   1.212   3.058
  247DPPC   C3012330   7.589   1.104   3.141
  247DPPC   C3112331   7.564   1.119   3.291
  247DPPC   C3212332   7.673   0.599   1.429
  247DPPC   O3312333   7.763   0.561   1.533
  247DPPC   C3412334   7.736   0.438   1.584
  247DPPC   O3512335   7.678   0.352   1.518
  247DPPC   C3612336   7.798   0.407   1.720
  247DPPC   C3712337   7.758   0.518   1.818
  247DPPC   C3812338   7.857   0.542   1.932
  247DPPC   C3912339   7.800   0.652   2.022
  247DPPC   C4012340   7.876   0.668   2.154
  247DPPC   C4112341   7.830   0.773   2.255
  247DPPC   C4212342   7.911   0.788   2.384
  247DPPC   C4312343   7.875   0.922   2.448
  247DPPC   C4412344   7.937   0.936   2.587
  247DPPC   C4512345   7.921   1.080   2.636
  247DPPC   C4612346   7.975   1.082   2.779
  247DPPC   C4712347   7.955   1.211   2.858
  247DPPC   C4812348   7.987   1.192   3.007
  247DPPC   C4912349   7.941   1.305   3.099
  247DPPC   C5012350   7.981   1.279   3.244
  248DPPC    C112351   6.352   1.213   1.787
  248DPPC    C212352   6.490   1.384   1.898
  248DPPC    C312353   6.263   1.395   1.903
  248DPPC    N412354   6.372   1.296   1.907
  248DPPC    C512355   6.380   1.224   2.035
  248DPPC    C612356   6.274   1.117   2.059
  248DPPC    O712357   6.142   1.161   2.089
  248DPPC    P812358   6.030   1.052   2.049
  248DPPC    O912359   6.050   1.010   1.909
  248DPPC   O1012360   5.903   1.117   2.087
  248DPPC   O1112361   6.064   0.934   2.154
  248DPPC   C1212362   6.040   0.981   2.287
  248DPPC   C1312363   6.091   0.882   2.391
  248DPPC   O1412364   6.013   0.876   2.511
  248DPPC   C1512365   5.888   0.823   2.510
  248DPPC   O1612366   5.834   0.784   2.407
  248DPPC   C1712367   5.819   0.807   2.646
  248DPPC   C1812368   5.740   0.937   2.669
  248DPPC   C1912369   5.658   0.933   2.798
  248DPPC   C2012370   5.741   0.910   2.923
  248DPPC   C2112371   5.668   0.923   3.057
  248DPPC   C2212372   5.757   0.968   3.173
  248DPPC   C2312373   5.701   0.914   3.304
  248DPPC   C2412374   5.784   0.938   3.430
  248DPPC   C2512375   5.706   0.882   3.549
  248DPPC   C2612376   5.792   0.907   3.673
  248DPPC   C2712377   5.707   0.892   3.800
  248DPPC   C2812378   5.592   0.992   3.786
  248DPPC   C2912379   5.503   1.007   3.909
  248DPPC   C3012380   5.445   1.145   3.944
  248DPPC   C3112381   5.356   1.202   3.834
  248DPPC   C3212382   6.242   0.886   2.416
  248DPPC   O3312383   6.282   1.022   2.437
  248DPPC   C3412384   6.409   1.054   2.475
  248DPPC   O3512385   6.512   0.990   2.458
  248DPPC   C3612386   6.406   1.202   2.514
  248DPPC   C3712387   6.527   1.240   2.600
  248DPPC   C3812388   6.539   1.163   2.732
  248DPPC   C3912389   6.576   1.256   2.847
  248DPPC   C4012390   6.575   1.154   2.960
  248DPPC   C4112391   6.638   1.230   3.078
  248DPPC   C4212392   6.605   1.148   3.202
  248DPPC   C4312393   6.665   1.200   3.333
  248DPPC   C4412394   6.708   1.092   3.432
  248DPPC   C4512395   6.811   1.149   3.530
  248DPPC   C4612396   6.853   1.067   3.652
  248DPPC   C4712397   6.974   1.133   3.718
  248DPPC   C4812398   7.057   1.054   3.820
  248DPPC   C4912399   7.135   0.932   3.770
  248DPPC   C5012400   7.198   0.846   3.880
  249DPPC    C112401   1.877   5.538   1.683
  249DPPC    C212402   2.049   5.653   1.560
  249DPPC    C312403   2.039   5.418   1.561
  249DPPC    N412404   1.956   5.539   1.559
  249DPPC    C512405   1.880   5.551   1.433
  249DPPC    C612406   1.821   5.685   1.392
  249DPPC    O712407   1.708   5.732   1.467
  249DPPC    P812408   1.693   5.890   1.438
  249DPPC    O912409   1.552   5.928   1.462
  249DPPC   O1012410   1.790   5.937   1.337
  249DPPC   O1112411   1.765   5.913   1.580
  249DPPC   C1212412   1.682   5.870   1.688
  249DPPC   C1312413   1.757   5.849   1.820
  249DPPC   O1412414   1.668   5.840   1.933
  249DPPC   C1512415   1.603   5.722   1.949
  249DPPC   O1612416   1.624   5.631   1.869
  249DPPC   C1712417   1.515   5.696   2.072
  249DPPC   C1812418   1.594   5.691   2.203
  249DPPC   C1912419   1.666   5.556   2.215
  249DPPC   C2012420   1.748   5.567   2.343
  249DPPC   C2112421   1.651   5.592   2.460
  249DPPC   C2212422   1.715   5.600   2.599
  249DPPC   C2312423   1.777   5.469   2.649
  249DPPC   C2412424   1.848   5.504   2.780
  249DPPC   C2512425   1.943   5.394   2.827
  249DPPC   C2612426   1.985   5.428   2.970
  249DPPC   C2712427   2.011   5.304   3.056
  249DPPC   C2812428   2.018   5.349   3.203
  249DPPC   C2912429   2.006   5.222   3.287
  249DPPC   C3012430   1.869   5.155   3.297
  249DPPC   C3112431   1.872   5.009   3.344
  249DPPC   C3212432   1.852   5.969   1.828
  249DPPC   O3312433   1.953   5.976   1.929
  249DPPC   C3412434   2.045   5.876   1.934
  249DPPC   O3512435   2.056   5.788   1.848
  249DPPC   C3612436   2.148   5.885   2.047
  249DPPC   C3712437   2.109   5.785   2.156
  249DPPC   C3812438   2.214   5.750   2.260
  249DPPC   C3912439   2.158   5.677   2.383
  249DPPC   C4012440   2.263   5.688   2.494
  249DPPC   C4112441   2.201   5.616   2.614
  249DPPC   C4212442   2.308   5.602   2.723
  249DPPC   C4312443   2.360   5.739   2.765
  249DPPC   C4412444   2.265   5.812   2.861
  249DPPC   C4512445   2.302   5.776   3.005
  249DPPC   C4612446   2.445   5.792   3.058
  249DPPC   C4712447   2.448   5.809   3.210
  249DPPC   C4812448   2.594   5.818   3.253
  249DPPC   C4912449   2.621   5.850   3.400
  249DPPC   C5012450   2.522   5.765   3.479
  250DPPC    C112451   8.739   8.062   1.179
  250DPPC    C212452   8.927   8.116   1.310
  250DPPC    C312453   8.969   8.087   1.082
  250DPPC    N412454   8.867   8.135   1.177
  250DPPC    C512455   8.858   8.276   1.137
  250DPPC    C612456   8.843   8.392   1.235
  250DPPC    O712457   8.962   8.413   1.312
  250DPPC    P812458   8.931   8.504   1.441
  250DPPC    O912459   8.867   8.625   1.385
  250DPPC   O1012460   9.068   8.510   1.498
  250DPPC   O1112461   8.829   8.388   1.486
  250DPPC   C1212462   8.765   8.422   1.609
  250DPPC   C1312463   8.706   8.308   1.692
  250DPPC   O1412464   8.620   8.351   1.798
  250DPPC   C1512465   8.490   8.310   1.797
  250DPPC   O1612466   8.444   8.240   1.707
  250DPPC   C1712467   8.398   8.364   1.906
  250DPPC   C1812468   8.394   8.276   2.031
  250DPPC   C1912469   8.343   8.365   2.145
  250DPPC   C2012470   8.333   8.285   2.275
  250DPPC   C2112471   8.221   8.183   2.263
  250DPPC   C2212472   8.194   8.135   2.406
  250DPPC   C2312473   8.087   8.027   2.390
  250DPPC   C2412474   8.063   7.944   2.515
  250DPPC   C2512475   7.936   7.858   2.508
  250DPPC   C2612476   7.901   7.797   2.643
  250DPPC   C2712477   7.766   7.724   2.638
  250DPPC   C2812478   7.763   7.653   2.774
  250DPPC   C2912479   7.801   7.745   2.890
  250DPPC   C3012480   7.814   7.653   3.012
  250DPPC   C3112481   7.855   7.751   3.122
  250DPPC   C3212482   8.823   8.213   1.722
  250DPPC   O3312483   8.925   8.285   1.791
  250DPPC   C3412484   9.030   8.207   1.830
  250DPPC   O3512485   9.035   8.088   1.799
  250DPPC   C3612486   9.139   8.264   1.921
  250DPPC   C3712487   9.081   8.282   2.062
  250DPPC   C3812488   9.173   8.371   2.145
  250DPPC   C3912489   9.113   8.388   2.285
  250DPPC   C4012490   9.216   8.456   2.374
  250DPPC   C4112491   9.172   8.458   2.521
  250DPPC   C4212492   9.275   8.526   2.611
  250DPPC   C4312493   9.405   8.446   2.613
  250DPPC   C4412494   9.403   8.305   2.674
  250DPPC   C4512495   9.546   8.250   2.673
  250DPPC   C4612496   9.569   8.184   2.538
  250DPPC   C4712497   9.708   8.121   2.536
  250DPPC   C4812498   9.739   8.059   2.399
  250DPPC   C4912499   9.885   8.013   2.390
  250DPPC   C5012500   9.922   7.916   2.502
  251DPPC    C112501   6.564   5.633   1.554
  251DPPC    C212502   6.783   5.620   1.467
  251DPPC    C312503   6.630   5.775   1.376
  251DPPC    N412504   6.675   5.714   1.501
  251DPPC    C512505   6.718   5.815   1.599
  251DPPC    C612506   6.634   5.938   1.634
  251DPPC    O712507   6.518   5.911   1.714
  251DPPC    P812508   6.439   6.028   1.792
  251DPPC    O912509   6.334   5.946   1.856
  251DPPC   O1012510   6.403   6.137   1.699
  251DPPC   O1112511   6.543   6.087   1.900
  251DPPC   C1212512   6.590   5.968   1.963
  251DPPC   C1312513   6.682   5.998   2.082
  251DPPC   O1412514   6.742   5.877   2.129
  251DPPC   C1512515   6.877   5.866   2.124
  251DPPC   O1612516   6.946   5.915   2.034
  251DPPC   C1712517   6.932   5.762   2.222
  251DPPC   C1812518   6.978   5.833   2.349
  251DPPC   C1912519   7.033   5.733   2.451
  251DPPC   C2012520   7.155   5.659   2.395
  251DPPC   C2112521   7.268   5.757   2.367
  251DPPC   C2212522   7.388   5.681   2.309
  251DPPC   C2312523   7.519   5.755   2.282
  251DPPC   C2412524   7.620   5.655   2.225
  251DPPC   C2512525   7.757   5.723   2.226
  251DPPC   C2612526   7.836   5.654   2.337
  251DPPC   C2712527   7.962   5.741   2.347
  251DPPC   C2812528   8.052   5.747   2.224
  251DPPC   C2912529   8.182   5.818   2.261
  251DPPC   C3012530   8.282   5.827   2.146
  251DPPC   C3112531   8.419   5.864   2.203
  251DPPC   C3212532   6.604   6.089   2.177
  251DPPC   O3312533   6.690   6.179   2.247
  251DPPC   C3412534   6.616   6.264   2.324
  251DPPC   O3512535   6.494   6.267   2.311
  251DPPC   C3612536   6.681   6.360   2.423
  251DPPC   C3712537   6.585   6.367   2.542
  251DPPC   C3812538   6.659   6.441   2.655
  251DPPC   C3912539   6.605   6.406   2.794
  251DPPC   C4012540   6.646   6.502   2.906
  251DPPC   C4112541   6.607   6.435   3.038
  251DPPC   C4212542   6.649   6.528   3.153
  251DPPC   C4312543   6.635   6.469   3.293
  251DPPC   C4412544   6.496   6.410   3.316
  251DPPC   C4512545   6.475   6.360   3.460
  251DPPC   C4612546   6.492   6.490   3.539
  251DPPC   C4712547   6.494   6.463   3.690
  251DPPC   C4812548   6.355   6.449   3.751
  251DPPC   C4912549   6.282   6.584   3.748
  251DPPC   C5012550   6.138   6.580   3.799
  252DPPC    C112551   4.473   2.536   1.794
  252DPPC    C212552   4.670   2.561   1.941
  252DPPC    C312553   4.478   2.675   1.978
  252DPPC    N412554   4.524   2.544   1.931
  252DPPC    C512555   4.474   2.420   1.993
  252DPPC    C612556   4.328   2.381   2.017
  252DPPC    O712557   4.256   2.482   2.087
  252DPPC    P812558   4.122   2.415   2.147
  252DPPC    O912559   4.164   2.299   2.229
  252DPPC   O1012560   4.032   2.397   2.031
  252DPPC   O1112561   4.084   2.541   2.238
  252DPPC   C1212562   4.184   2.559   2.339
  252DPPC   C1312563   4.245   2.699   2.341
  252DPPC   O1412564   4.355   2.718   2.432
  252DPPC   C1512565   4.466   2.793   2.411
  252DPPC   O1612566   4.484   2.861   2.310
  252DPPC   C1712567   4.557   2.797   2.534
  252DPPC   C1812568   4.646   2.673   2.541
  252DPPC   C1912569   4.701   2.662   2.683
  252DPPC   C2012570   4.807   2.553   2.703
  252DPPC   C2112571   4.830   2.516   2.850
  252DPPC   C2212572   4.872   2.371   2.873
  252DPPC   C2312573   4.872   2.343   3.024
  252DPPC   C2412574   4.917   2.199   3.045
  252DPPC   C2512575   4.964   2.162   3.186
  252DPPC   C2612576   5.018   2.020   3.199
  252DPPC   C2712577   4.903   1.928   3.160
  252DPPC   C2812578   4.948   1.790   3.110
  252DPPC   C2912579   5.063   1.801   3.010
  252DPPC   C3012580   5.151   1.676   2.996
  252DPPC   C3112581   5.281   1.708   2.922
  252DPPC   C3212582   4.131   2.799   2.364
  252DPPC   O3312583   4.049   2.779   2.479
  252DPPC   C3412584   3.941   2.861   2.475
  252DPPC   O3512585   3.918   2.924   2.372
  252DPPC   C3612586   3.857   2.871   2.603
  252DPPC   C3712587   3.744   2.769   2.586
  252DPPC   C3812588   3.643   2.764   2.701
  252DPPC   C3912589   3.722   2.722   2.825
  252DPPC   C4012590   3.637   2.716   2.952
  252DPPC   C4112591   3.714   2.650   3.066
  252DPPC   C4212592   3.761   2.506   3.042
  252DPPC   C4312593   3.845   2.455   3.160
  252DPPC   C4412594   3.895   2.315   3.123
  252DPPC   C4512595   4.040   2.302   3.170
  252DPPC   C4612596   4.105   2.165   3.152
  252DPPC   C4712597   4.110   2.130   3.003
  252DPPC   C4812598   4.192   2.001   3.000
  252DPPC   C4912599   4.116   1.904   3.092
  252DPPC   C5012600   4.168   1.760   3.086
  253DPPC    C112601   3.820   7.474   1.840
  253DPPC    C212602   3.791   7.706   1.788
  253DPPC    C312603   3.613   7.544   1.741
  253DPPC    N412604   3.722   7.583   1.831
  253DPPC    C512605   3.663   7.597   1.965
  253DPPC    C612606   3.743   7.612   2.095
  253DPPC    O712607   3.800   7.738   2.133
  253DPPC    P812608   3.957   7.726   2.166
  253DPPC    O912609   4.028   7.855   2.156
  253DPPC   O1012610   4.009   7.622   2.074
  253DPPC   O1112611   3.950   7.679   2.320
  253DPPC   C1212612   3.876   7.774   2.397
  253DPPC   C1312613   3.799   7.705   2.510
  253DPPC   O1412614   3.703   7.782   2.584
  253DPPC   C1512615   3.572   7.783   2.545
  253DPPC   O1612616   3.536   7.723   2.444
  253DPPC   C1712617   3.474   7.858   2.635
  253DPPC   C1812618   3.330   7.818   2.604
  253DPPC   C1912619   3.243   7.902   2.699
  253DPPC   C2012620   3.099   7.854   2.717
  253DPPC   C2112621   3.056   7.916   2.849
  253DPPC   C2212622   2.917   7.861   2.884
  253DPPC   C2312623   2.868   7.943   3.003
  253DPPC   C2412624   2.717   7.945   3.026
  253DPPC   C2512625   2.674   8.000   3.162
  253DPPC   C2612626   2.529   7.965   3.199
  253DPPC   C2712627   2.432   8.035   3.103
  253DPPC   C2812628   2.379   8.174   3.139
  253DPPC   C2912629   2.308   8.236   3.018
  253DPPC   C3012630   2.263   8.372   3.072
  253DPPC   C3112631   2.182   8.466   2.984
  253DPPC   C3212632   3.906   7.643   2.599
  253DPPC   O3312633   4.009   7.718   2.664
  253DPPC   C3412634   4.108   7.652   2.729
  253DPPC   O3512635   4.104   7.529   2.738
  253DPPC   C3612636   4.228   7.732   2.781
  253DPPC   C3712637   4.217   7.794   2.921
  253DPPC   C3812638   4.346   7.872   2.941
  253DPPC   C3912639   4.358   8.009   2.873
  253DPPC   C4012640   4.486   8.081   2.918
  253DPPC   C4112641   4.612   7.995   2.906
  253DPPC   C4212642   4.719   8.051   3.000
  253DPPC   C4312643   4.822   7.939   3.011
  253DPPC   C4412644   4.935   7.990   3.102
  253DPPC   C4512645   5.062   7.910   3.073
  253DPPC   C4612646   5.176   7.956   3.163
  253DPPC   C4712647   5.295   7.865   3.132
  253DPPC   C4812648   5.404   7.893   3.235
  253DPPC   C4912649   5.521   7.795   3.255
  253DPPC   C5012650   5.610   7.822   3.376
  254DPPC    C112651   3.123   1.394   2.485
  254DPPC    C212652   3.030   1.614   2.466
  254DPPC    C312653   3.145   1.511   2.289
  254DPPC    N412654   3.048   1.486   2.396
  254DPPC    C512655   2.925   1.424   2.344
  254DPPC    C612656   2.848   1.480   2.224
  254DPPC    O712657   2.713   1.514   2.255
  254DPPC    P812658   2.663   1.584   2.119
  254DPPC    O912659   2.720   1.505   2.008
  254DPPC   O1012660   2.689   1.727   2.149
  254DPPC   O1112661   2.515   1.550   2.171
  254DPPC   C1212662   2.470   1.644   2.270
  254DPPC   C1312663   2.324   1.642   2.315
  254DPPC   O1412664   2.280   1.726   2.422
  254DPPC   C1512665   2.300   1.860   2.413
  254DPPC   O1612666   2.349   1.925   2.321
  254DPPC   C1712667   2.240   1.937   2.531
  254DPPC   C1812668   2.346   2.001   2.621
  254DPPC   C1912669   2.282   2.044   2.753
  254DPPC   C2012670   2.397   2.077   2.847
  254DPPC   C2112671   2.342   2.157   2.965
  254DPPC   C2212672   2.421   2.123   3.091
  254DPPC   C2312673   2.430   1.979   3.141
  254DPPC   C2412674   2.320   1.939   3.240
  254DPPC   C2512675   2.345   1.797   3.292
  254DPPC   C2612676   2.237   1.769   3.396
  254DPPC   C2712677   2.244   1.638   3.474
  254DPPC   C2812678   2.381   1.648   3.543
  254DPPC   C2912679   2.414   1.524   3.627
  254DPPC   C3012680   2.300   1.487   3.723
  254DPPC   C3112681   2.356   1.378   3.814
  254DPPC   C3212682   2.308   1.491   2.339
  254DPPC   O3312683   2.378   1.440   2.453
  254DPPC   C3412684   2.404   1.307   2.445
  254DPPC   O3512685   2.366   1.240   2.349
  254DPPC   C3612686   2.489   1.252   2.560
  254DPPC   C3712687   2.408   1.155   2.646
  254DPPC   C3812688   2.502   1.096   2.751
  254DPPC   C3912689   2.435   0.994   2.842
  254DPPC   C4012690   2.538   0.943   2.943
  254DPPC   C4112691   2.485   0.829   3.030
  254DPPC   C4212692   2.610   0.759   3.082
  254DPPC   C4312693   2.694   0.825   3.191
  254DPPC   C4412694   2.797   0.721   3.235
  254DPPC   C4512695   2.871   0.754   3.365
  254DPPC   C4612696   2.784   0.763   3.491
  254DPPC   C4712697   2.877   0.753   3.613
  254DPPC   C4812698   2.806   0.740   3.748
  254DPPC   C4912699   2.908   0.729   3.861
  254DPPC   C5012700   2.860   0.790   3.993
  255DPPC    C112701   1.551   7.628   1.804
  255DPPC    C212702   1.559   7.399   1.729
  255DPPC    C312703   1.395   7.536   1.648
  255DPPC    N412704   1.536   7.538   1.689
  255DPPC    C512705   1.618   7.588   1.578
  255DPPC    C612706   1.770   7.602   1.581
  255DPPC    O712707   1.860   7.491   1.578
  255DPPC    P812708   2.015   7.529   1.558
  255DPPC    O912709   2.019   7.650   1.474
  255DPPC   O1012710   2.084   7.402   1.525
  255DPPC   O1112711   2.024   7.556   1.717
  255DPPC   C1212712   2.008   7.429   1.782
  255DPPC   C1312713   2.027   7.431   1.933
  255DPPC   O1412714   2.035   7.301   1.992
  255DPPC   C1512715   2.160   7.248   2.006
  255DPPC   O1612716   2.260   7.292   1.951
  255DPPC   C1712717   2.169   7.115   2.082
  255DPPC   C1812718   2.054   7.074   2.173
  255DPPC   C1912719   2.094   6.960   2.267
  255DPPC   C2012720   1.971   6.896   2.332
  255DPPC   C2112721   1.900   6.802   2.234
  255DPPC   C2212722   1.771   6.745   2.292
  255DPPC   C2312723   1.792   6.643   2.405
  255DPPC   C2412724   1.662   6.619   2.483
  255DPPC   C2512725   1.693   6.495   2.567
  255DPPC   C2612726   1.584   6.467   2.670
  255DPPC   C2712727   1.593   6.319   2.709
  255DPPC   C2812728   1.475   6.279   2.798
  255DPPC   C2912729   1.481   6.362   2.926
  255DPPC   C3012730   1.406   6.270   3.022
  255DPPC   C3112731   1.471   6.136   3.056
  255DPPC   C3212732   1.921   7.531   1.981
  255DPPC   O3312733   1.929   7.597   2.108
  255DPPC   C3412734   1.807   7.646   2.143
  255DPPC   O3512735   1.712   7.629   2.067
  255DPPC   C3612736   1.774   7.697   2.283
  255DPPC   C3712737   1.846   7.829   2.308
  255DPPC   C3812738   1.802   7.887   2.442
  255DPPC   C3912739   1.872   8.020   2.471
  255DPPC   C4012740   1.836   8.054   2.616
  255DPPC   C4112741   1.893   8.194   2.639
  255DPPC   C4212742   1.870   8.246   2.781
  255DPPC   C4312743   1.961   8.164   2.873
  255DPPC   C4412744   1.886   8.098   2.989
  255DPPC   C4512745   1.995   8.017   3.060
  255DPPC   C4612746   1.945   7.955   3.190
  255DPPC   C4712747   2.046   7.862   3.257
  255DPPC   C4812748   2.012   7.715   3.232
  255DPPC   C4912749   2.121   7.630   3.297
  255DPPC   C5012750   2.116   7.659   3.447
  256DPPC    C112751   2.747   6.670   1.836
  256DPPC    C212752   2.709   6.444   1.886
  256DPPC    C312753   2.598   6.558   1.698
  256DPPC    N412754   2.722   6.539   1.775
  256DPPC    C512755   2.833   6.512   1.683
  256DPPC    C612756   2.874   6.365   1.673
  256DPPC    O712757   2.774   6.293   1.600
  256DPPC    P812758   2.820   6.140   1.585
  256DPPC    O912759   2.967   6.147   1.570
  256DPPC   O1012760   2.722   6.097   1.483
  256DPPC   O1112761   2.767   6.104   1.733
  256DPPC   C1212762   2.627   6.097   1.707
  256DPPC   C1312763   2.549   6.044   1.828
  256DPPC   O1412764   2.503   6.147   1.917
  256DPPC   C1512765   2.378   6.198   1.905
  256DPPC   O1612766   2.311   6.191   1.802
  256DPPC   C1712767   2.345   6.302   2.012
  256DPPC   C1812768   2.270   6.229   2.124
  256DPPC   C1912769   2.224   6.344   2.214
  256DPPC   C2012770   2.140   6.278   2.324
  256DPPC   C2112771   2.117   6.383   2.432
  256DPPC   C2212772   2.235   6.443   2.509
  256DPPC   C2312773   2.184   6.527   2.626
  256DPPC   C2412774   2.145   6.664   2.569
  256DPPC   C2512775   2.099   6.742   2.693
  256DPPC   C2612776   1.991   6.674   2.777
  256DPPC   C2712777   1.961   6.732   2.915
  256DPPC   C2812778   1.833   6.674   2.974
  256DPPC   C2912779   1.860   6.529   3.016
  256DPPC   C3012780   1.761   6.488   3.125
  256DPPC   C3112781   1.816   6.359   3.187
  256DPPC   C3212782   2.633   5.928   1.881
  256DPPC   O3312783   2.576   5.844   1.981
  256DPPC   C3412784   2.650   5.739   2.027
  256DPPC   O3512785   2.769   5.727   2.000
  256DPPC   C3612786   2.561   5.635   2.096
  256DPPC   C3712787   2.632   5.572   2.217
  256DPPC   C3812788   2.538   5.509   2.319
  256DPPC   C3912789   2.491   5.373   2.266
  256DPPC   C4012790   2.384   5.319   2.361
  256DPPC   C4112791   2.452   5.301   2.497
  256DPPC   C4212792   2.338   5.270   2.595
  256DPPC   C4312793   2.269   5.141   2.551
  256DPPC   C4412794   2.165   5.086   2.648
  256DPPC   C4512795   2.115   4.948   2.602
  256DPPC   C4612796   2.001   4.908   2.695
  256DPPC   C4712797   2.049   4.898   2.840
  256DPPC   C4812798   1.927   4.894   2.933
  256DPPC   C4912799   1.916   4.748   2.978
  256DPPC   C5012800   1.792   4.740   3.067
  257SOL     OW12801   9.589   0.674   5.957
  257SOL    HW112802   9.520   0.631   5.898
  257SOL    HW212803   9.550   0.690   6.047
  258SOL     OW12804   6.228   8.136   1.262
  258SOL    HW112805   6.327   8.128   1.277
  258SOL    HW212806   6.198   8.228   1.287
  259SOL     OW12807   3.773   2.382   0.776
  259SOL    HW112808   3.743   2.446   0.847
  259SOL    HW212809   3.871   2.368   0.784
  260SOL     OW12810   6.349   1.305   0.727
  260SOL    HW112811   6.375   1.355   0.810
  260SOL    HW212812   6.276   1.354   0.681
  261SOL     OW12813   2.918   0.358   6.497
  261SOL    HW112814   2.995   0.422   6.486
  261SOL    HW212815   2.840   0.407   6.536
  262SOL     OW12816   1.010   5.497   4.542
  262SOL    HW112817   0.944   5.428   4.514
  262SOL    HW212818   1.102   5.457   4.546
  263SOL     OW12819   0.726   3.949   6.680
  263SOL    HW112820   0.729   3.850   6.691
  263SOL    HW212821   0.783   3.976   6.601
  264SOL     OW12822   4.311   5.130   2.079
  264SOL    HW112823   4.348   5.091   2.164
  264SOL    HW212824   4.212   5.119   2.077
  265SOL     OW12825   3.498   1.439   1.978
  265SOL    HW112826   3.443   1.417   2.058
  265SOL    HW212827   3.580   1.383   1.976
  266SOL     OW12828   4.147   7.382   2.029
  266SOL    HW112829   4.106   7.474   2.026
  266SOL    HW212830   4.075   7.314   2.042
  267SOL     OW12831   8.385   3.099   5.594
  267SOL    HW112832   8.386   3.160   5.515
  267SOL    HW212833   8.303   3.043   5.592
  268SOL     OW12834   3.520   1.466   0.523
  268SOL    HW112835   3.504   1.545   0.463
  268SOL    HW212836   3.471   1.478   0.609
  269SOL     OW12837   6.597   0.376   1.175
  269SOL    HW112838   6.604   0.286   1.132
  269SOL    HW212839   6.525   0.429   1.131
  270SOL     OW12840   4.544   2.606   1.417
  270SOL    HW112841   4.498   2.679   1.468
  270SOL    HW212842   4.629   2.582   1.464
  271SOL     OW12843   7.586   7.602   5.021
  271SOL    HW112844   7.644   7.655   5.083
  271SOL    HW212845   7.592   7.641   4.929
  272SOL     OW12846   2.522   6.580   6.938
  272SOL    HW112847   2.584   6.625   6.873
  272SOL    HW212848   2.468   6.649   6.986
  273SOL     OW12849   9.000   6.706   0.268
  273SOL    HW112850   9.049   6.790   0.245
  273SOL    HW212851   8.987   6.651   0.186
  274SOL     OW12852   1.348   4.366   6.619
  274SOL    HW112853   1.415   4.291   6.612
  274SOL    HW212854   1.333   4.388   6.715
  275SOL     OW12855   5.900   3.019   1.413
  275SOL    HW112856   5.903   3.118   1.431
  275SOL    HW212857   5.960   2.998   1.336
  276SOL     OW12858   1.125   6.706   6.376
  276SOL    HW112859   1.044   6.754   6.340
  276SOL    HW212860   1.183   6.771   6.425
  277SOL     OW12861   9.293   3.349   0.693
  277SOL    HW112862   9.287   3.444   0.725
  277SOL    HW212863   9.332   3.293   0.766
  278SOL     OW12864   5.767   5.710   5.969
  278SOL    HW112865   5.841   5.750   6.023
  278SOL    HW212866   5.703   5.782   5.942
  279SOL     OW12867   5.662   7.302   6.326
  279SOL    HW112868   5.707   7.223   6.367
  279SOL    HW212869   5.669   7.297   6.226
  280SOL     OW12870   6.054   0.482   1.825
  280SOL    HW112871   6.066   0.581   1.826
  280SOL    HW212872   6.040   0.449   1.918
  281SOL     OW12873   3.885   2.772   5.452
  281SOL    HW112874   3.921   2.821   5.531
  281SOL    HW212875   3.946   2.784   5.374
  282SOL     OW12876   3.095   6.532   5.032
  282SOL    HW112877   3.174   6.590   5.054
  282SOL    HW212878   3.012   6.588   5.031
  283SOL     OW12879   1.773   3.678   6.806
  283SOL    HW112880   1.676   3.662   6.821
  283SOL    HW212881   1.795   3.660   6.710
  284SOL     OW12882   8.251   8.025   5.952
  284SOL    HW112883   8.301   8.085   6.016
  284SOL    HW212884   8.206   8.081   5.882
  285SOL     OW12885   2.496   1.408   6.940
  285SOL    HW112886   2.537   1.441   7.026
  285SOL    HW212887   2.475   1.486   6.881
  286SOL     OW12888   4.141   0.977   1.197
  286SOL    HW112889   4.095   0.924   1.126
  286SOL    HW212890   4.178   1.061   1.157
  287SOL     OW12891   6.971   7.096   1.668
  287SOL    HW112892   7.046   7.031   1.659
  287SOL    HW212893   6.938   7.096   1.762
  288SOL     OW12894   3.098   6.891   0.528
  288SOL    HW112895   3.065   6.897   0.433
  288SOL    HW212896   3.195   6.867   0.528
  289SOL     OW12897   8.903   6.443   0.827
  289SOL    HW112898   8.832   6.489   0.880
  289SOL    HW212899   8.925   6.355   0.870
  290SOL     OW12900   6.639   6.385   6.498
  290SOL    HW112901   6.603   6.376   6.405
  290SOL    HW212902   6.728   6.431   6.495
  291SOL     OW12903   0.820   2.499   0.980
  291SOL    HW112904   0.847   2.567   0.912
  291SOL    HW212905   0.842   2.532   1.072
  292SOL     OW12906   3.054   1.211   1.481
  292SOL    HW112907   2.982   1.167   1.428
  292SOL    HW212908   3.142   1.195   1.437
  293SOL     OW12909   7.299   6.410   6.264
  293SOL    HW112910   7.212   6.365   6.243
  293SOL    HW212911   7.370   6.341   6.279
  294SOL     OW12912   6.674   6.842   5.698
  294SOL    HW112913   6.734   6.835   5.779
  294SOL    HW212914   6.730   6.834   5.615
  295SOL     OW12915   5.629   0.885   0.377
  295SOL    HW112916   5.717   0.841   0.360
  295SOL    HW212917   5.557   0.833   0.331
  296SOL     OW12918   4.603   4.249   2.104
  296SOL    HW112919   4.591   4.304   2.021
  296SOL    HW212920   4.700   4.245   2.127
  297SOL     OW12921   8.718   6.009   6.471
  297SOL    HW112922   8.761   6.033   6.384
  297SOL    HW212923   8.626   5.974   6.453
  298SOL     OW12924   6.910   1.032   6.913
  298SOL    HW112925   6.931   0.985   6.828
  298SOL    HW212926   6.985   1.020   6.978
  299SOL     OW12927   4.327   0.333   5.861
  299SOL    HW112928   4.421   0.310   5.885
  299SOL    HW212929   4.319   0.431   5.844
  300SOL     OW12930   3.222   0.357   5.268
  300SOL    HW112931   3.130   0.368   5.231
  300SOL    HW212932   3.218   0.307   5.354
  301SOL     OW12933   4.294   6.936   5.808
  301SOL    HW112934   4.262   6.848   5.842
  301SOL    HW212935   4.230   6.971   5.740
  302SOL     OW12936   2.588   3.521   1.134
  302SOL    HW112937   2.681   3.504   1.164
  302SOL    HW212938   2.559   3.612   1.165
  303SOL     OW12939   4.733   1.387   1.589
  303SOL    HW112940   4.783   1.303   1.569
  303SOL    HW212941   4.720   1.395   1.687
  304SOL     OW12942   6.477   3.298   0.449
  304SOL    HW112943   6.565   3.309   0.402
  304SOL    HW212944   6.487   3.329   0.544
  305SOL     OW12945   8.048   4.539   5.460
  305SOL    HW112946   7.949   4.528   5.469
  305SOL    HW212947   8.086   4.461   5.409
  306SOL     OW12948   1.551   0.874   5.625
  306SOL    HW112949   1.456   0.848   5.640
  306SOL    HW212950   1.609   0.793   5.627
  307SOL     OW12951   3.072   6.196   6.431
  307SOL    HW112952   3.106   6.276   6.480
  307SOL    HW212953   3.011   6.224   6.357
  308SOL     OW12954   1.748   4.204   0.827
  308SOL    HW112955   1.669   4.215   0.767
  308SOL    HW212956   1.718   4.168   0.916
  309SOL     OW12957   4.417   0.051   6.747
  309SOL    HW112958   4.472   0.134   6.736
  309SOL    HW212959   4.353   0.043   6.671
  310SOL     OW12960   6.986   1.276   6.536
  310SOL    HW112961   6.972   1.359   6.481
  310SOL    HW212962   6.946   1.198   6.490
  311SOL     OW12963   6.886   2.724   1.946
  311SOL    HW112964   6.861   2.799   2.006
  311SOL    HW212965   6.966   2.750   1.891
  312SOL     OW12966   7.632   7.564   1.239
  312SOL    HW112967   7.707   7.563   1.173
  312SOL    HW212968   7.545   7.547   1.191
  313SOL     OW12969   1.039  -0.023   1.245
  313SOL    HW112970   1.035  -0.106   1.301
  313SOL    HW212971   1.017  -0.046   1.150
  314SOL     OW12972   3.188   8.403   2.171
  314SOL    HW112973   3.227   8.490   2.199
  314SOL    HW212974   3.090   8.402   2.189
  315SOL     OW12975   0.381   3.647   1.263
  315SOL    HW112976   0.409   3.689   1.350
  315SOL    HW212977   0.458   3.647   1.199
  316SOL     OW12978   7.148   3.155   0.560
  316SOL    HW112979   7.155   3.072   0.615
  316SOL    HW212980   7.103   3.227   0.613
  317SOL     OW12981   1.885   0.510   1.139
  317SOL    HW112982   1.936   0.587   1.100
  317SOL    HW212983   1.880   0.435   1.073
  318SOL     OW12984   0.245   3.053   0.530
  318SOL    HW112985   0.260   2.954   0.536
  318SOL    HW212986   0.147   3.073   0.530
  319SOL     OW12987   4.037   6.083   6.164
  319SOL    HW112988   4.000   6.006   6.217
  319SOL    HW212989   3.961   6.136   6.126
  320SOL     OW12990   2.464   6.007   6.397
  320SOL    HW112991   2.448   5.983   6.493
  320SOL    HW212992   2.377   6.033   6.355
  321SOL     OW12993   1.569   4.104   0.431
  321SOL    HW112994   1.611   4.183   0.386
  321SOL    HW212995   1.638   4.032   0.443
  322SOL     OW12996   7.816   3.255   6.313
  322SOL    HW112997   7.768   3.312   6.247
  322SOL    HW212998   7.837   3.310   6.395
  323SOL     OW12999   7.838   5.994   6.466
  323SOL    HW113000   7.768   5.996   6.537
  323SOL    HW213001   7.904   5.922   6.487
  324SOL     OW13002   7.286   1.471   1.442
  324SOL    HW113003   7.292   1.373   1.425
  324SOL    HW213004   7.330   1.493   1.529
  325SOL     OW13005   6.536   3.357   1.446
  325SOL    HW113006   6.615   3.311   1.485
  325SOL    HW213007   6.480   3.291   1.396
  326SOL     OW13008   3.476   0.959   1.177
  326SOL    HW113009   3.382   0.970   1.144
  326SOL    HW213010   3.530   1.039   1.152
  327SOL     OW13011   4.229   8.321   6.358
  327SOL    HW113012   4.291   8.245   6.339
  327SOL    HW213013   4.139   8.302   6.319
  328SOL     OW13014   3.039   6.203   6.864
  328SOL    HW113015   2.984   6.184   6.783
  328SOL    HW213016   3.131   6.228   6.836
  329SOL     OW13017   0.615   4.532   6.870
  329SOL    HW113018   0.595   4.438   6.900
  329SOL    HW213019   0.703   4.534   6.823
  330SOL     OW13020   2.630   3.206   5.751
  330SOL    HW113021   2.689   3.136   5.792
  330SOL    HW213022   2.635   3.201   5.652
  331SOL     OW13023   6.117   6.440   5.498
  331SOL    HW113024   6.202   6.441   5.445
  331SOL    HW213025   6.042   6.475   5.441
  332SOL     OW13026   5.435   2.507   1.587
  332SOL    HW113027   5.476   2.417   1.573
  332SOL    HW213028   5.358   2.518   1.524
  333SOL     OW13029   9.120   3.903   1.162
  333SOL    HW113030   9.215   3.875   1.148
  333SOL    HW213031   9.117   3.994   1.204
  334SOL     OW13032   0.381   3.145   5.689
  334SOL    HW113033   0.436   3.145   5.605
  334SOL    HW213034   0.298   3.200   5.674
  335SOL     OW13035   7.151   4.407   6.540
  335SOL    HW113036   7.065   4.359   6.554
  335SOL    HW213037   7.219   4.344   6.502
  336SOL     OW13038   1.072   7.974   1.655
  336SOL    HW113039   1.115   8.063   1.668
  336SOL    HW213040   0.978   7.977   1.689
  337SOL     OW13041   0.634   1.236   4.896
  337SOL    HW113042   0.575   1.317   4.891
  337SOL    HW213043   0.579   1.155   4.915
  338SOL     OW13044   4.661   5.820   6.867
  338SOL    HW113045   4.748   5.869   6.860
  338SOL    HW213046   4.678   5.728   6.902
  339SOL     OW13047   0.286   4.107   6.761
  339SOL    HW113048   0.258   4.014   6.785
  339SOL    HW213049   0.212   4.153   6.712
  340SOL     OW13050   7.614   6.261   6.935
  340SOL    HW113051   7.570   6.351   6.934
  340SOL    HW213052   7.693   6.262   6.873
  341SOL     OW13053   3.475   6.284   6.623
  341SOL    HW113054   3.531   6.226   6.563
  341SOL    HW213055   3.421   6.347   6.567
  342SOL     OW13056   6.531   3.675   6.817
  342SOL    HW113057   6.467   3.751   6.808
  342SOL    HW213058   6.624   3.707   6.797
  343SOL     OW13059   7.778   0.615   5.998
  343SOL    HW113060   7.852   0.574   5.945
  343SOL    HW213061   7.712   0.657   5.935
  344SOL     OW13062   7.927   7.401   5.133
  344SOL    HW113063   7.966   7.414   5.224
  344SOL    HW213064   7.827   7.408   5.138
  345SOL     OW13065   4.029   5.910   0.979
  345SOL    HW113066   3.962   5.951   0.917
  345SOL    HW213067   4.115   5.895   0.931
  346SOL     OW13068   2.508   1.374   0.591
  346SOL    HW113069   2.504   1.470   0.618
  346SOL    HW213070   2.437   1.322   0.639
  347SOL     OW13071   6.528   1.810   5.954
  347SOL    HW113072   6.533   1.895   5.901
  347SOL    HW213073   6.455   1.753   5.916
  348SOL     OW13074   5.223   0.353   6.504
  348SOL    HW113075   5.316   0.377   6.477
  348SOL    HW213076   5.198   0.404   6.587
  349SOL     OW13077   0.389   3.205   6.420
  349SOL    HW113078   0.332   3.123   6.412
  349SOL    HW213079   0.338   3.283   6.384
  350SOL     OW13080   2.509  -0.049   6.110
  350SOL    HW113081   2.444   0.027   6.100
  350SOL    HW213082   2.494  -0.115   6.037
  351SOL     OW13083   3.386   3.477   0.367
  351SOL    HW113084   3.362   3.543   0.297
  351SOL    HW213085   3.486   3.468   0.372
  352SOL     OW13086   7.337   5.890   5.717
  352SOL    HW113087   7.343   5.812   5.655
  352SOL    HW213088   7.256   5.945   5.694
  353SOL     OW13089   7.610   3.730   6.569
  353SOL    HW113090   7.683   3.708   6.634
  353SOL    HW213091   7.627   3.684   6.482
  354SOL     OW13092   1.195   7.146   5.811
  354SOL    HW113093   1.216   7.085   5.887
  354SOL    HW213094   1.158   7.232   5.847
  355SOL     OW13095   8.113   6.146   0.260
  355SOL    HW113096   8.158   6.057   0.252
  355SOL    HW213097   8.121   6.196   0.174
  356SOL     OW13098   4.805   7.392   6.564
  356SOL    HW113099   4.862   7.337   6.625
  356SOL    HW213100   4.726   7.427   6.614
  357SOL     OW13101   4.853   0.495   0.607
  357SOL    HW113102   4.788   0.516   0.680
  357SOL    HW213103   4.831   0.407   0.566
  358SOL     OW13104   2.241   0.412   0.999
  358SOL    HW113105   2.234   0.360   1.085
  358SOL    HW213106   2.187   0.368   0.928
  359SOL     OW13107   0.475   0.254   5.847
  359SOL    HW113108   0.573   0.235   5.853
  359SOL    HW213109   0.456   0.346   5.882
  360SOL     OW13110   8.843   1.832   0.381
  360SOL    HW113111   8.802   1.796   0.297
  360SOL    HW213112   8.892   1.917   0.361
  361SOL     OW13113   3.926   4.257   0.818
  361SOL    HW113114   3.949   4.320   0.744
  361SOL    HW213115   4.009   4.237   0.871
  362SOL     OW13116   2.649   2.191   0.624
  362SOL    HW113117   2.719   2.151   0.683
  362SOL    HW213118   2.572   2.223   0.680
  363SOL     OW13119   8.872   4.224   6.596
  363SOL    HW113120   8.845   4.293   6.662
  363SOL    HW213121   8.869   4.263   6.504
  364SOL     OW13122   8.102   1.072   6.141
  364SOL    HW113123   8.128   1.116   6.055
  364SOL    HW213124   8.093   0.973   6.126
  365SOL     OW13125   0.832   4.861   0.415
  365SOL    HW113126   0.769   4.919   0.362
  365SOL    HW213127   0.893   4.813   0.352
  366SOL     OW13128   7.050   5.446   5.991
  366SOL    HW113129   7.039   5.543   5.971
  366SOL    HW213130   7.121   5.408   5.932
  367SOL     OW13131   5.752   1.473   0.591
  367SOL    HW113132   5.777   1.401   0.656
  367SOL    HW213133   5.804   1.461   0.506
  368SOL     OW13134   5.133   7.403   6.502
  368SOL    HW113135   5.125   7.422   6.404
  368SOL    HW213136   5.124   7.305   6.518
  369SOL     OW13137   0.448   3.334   1.171
  369SOL    HW113138   0.532   3.386   1.154
  369SOL    HW213139   0.467   3.262   1.237
  370SOL     OW13140   6.525   4.903   1.086
  370SOL    HW113141   6.545   4.992   1.045
  370SOL    HW213142   6.600   4.839   1.067
  371SOL     OW13143   3.835   0.040   0.513
  371SOL    HW113144   3.816  -0.054   0.539
  371SOL    HW213145   3.933   0.051   0.495
  372SOL     OW13146   2.433   5.606   6.701
  372SOL    HW113147   2.528   5.612   6.732
  372SOL    HW213148   2.372   5.613   6.780
  373SOL     OW13149   8.473   3.915   5.482
  373SOL    HW113150   8.399   3.853   5.457
  373SOL    HW213151   8.495   3.974   5.404
  374SOL     OW13152   3.528   2.322   5.410
  374SOL    HW113153   3.465   2.399   5.424
  374SOL    HW213154   3.543   2.309   5.312
  375SOL     OW13155   8.456   1.808   0.640
  375SOL    HW113156   8.554   1.803   0.622
  375SOL    HW213157   8.414   1.873   0.578
  376SOL     OW13158   3.998   5.174   1.943
  376SOL    HW113159   3.934   5.249   1.959
  376SOL    HW213160   3.957   5.109   1.879
  377SOL     OW13161   6.173   0.950   1.555
  377SOL    HW113162   6.127   1.020   1.610
  377SOL    HW213163   6.108   0.912   1.489
  378SOL     OW13164   6.541   7.793   1.388
  378SOL    HW113165   6.606   7.800   1.465
  378SOL    HW213166   6.590   7.765   1.306
  379SOL     OW13167   5.890   0.434   5.461
  379SOL    HW113168   5.843   0.521   5.471
  379SOL    HW213169   5.939   0.413   5.546
  380SOL     OW13170   8.380   0.031   6.414
  380SOL    HW113171   8.359  -0.063   6.387
  380SOL    HW213172   8.303   0.069   6.465
  381SOL     OW13173   0.354   8.287   1.682
  381SOL    HW113174   0.426   8.314   1.746
  381SOL    HW213175   0.270   8.266   1.733
  382SOL     OW13176   6.637   1.063   0.819
  382SOL    HW113177   6.595   0.973   0.827
  382SOL    HW213178   6.567   1.133   0.819
  383SOL     OW13179   6.586   7.512   0.634
  383SOL    HW113180   6.626   7.597   0.668
  383SOL    HW213181   6.489   7.526   0.615
  384SOL     OW13182   6.540   2.701   1.225
  384SOL    HW113183   6.640   2.700   1.217
  384SOL    HW213184   6.513   2.770   1.292
  385SOL     OW13185   6.078   6.701   6.526
  385SOL    HW113186   6.036   6.704   6.435
  385SOL    HW213187   6.059   6.612   6.568
  386SOL     OW13188   5.709   7.235   6.058
  386SOL    HW113189   5.800   7.277   6.054
  386SOL    HW213190   5.668   7.236   5.967
  387SOL     OW13191   5.100   3.998   1.410
  387SOL    HW113192   5.053   4.086   1.398
  387SOL    HW213193   5.186   4.013   1.458
  388SOL     OW13194   6.485   3.368   0.717
  388SOL    HW113195   6.421   3.318   0.775
  388SOL    HW213196   6.567   3.391   0.770
  389SOL     OW13197   0.658   5.094   5.623
  389SOL    HW113198   0.663   5.032   5.545
  389SOL    HW213199   0.597   5.170   5.602
  390SOL     OW13200   3.608  -0.015   1.282
  390SOL    HW113201   3.706  -0.015   1.261
  390SOL    HW213202   3.557   0.015   1.202
  391SOL     OW13203   4.583   1.985   1.331
  391SOL    HW113204   4.656   1.989   1.263
  391SOL    HW213205   4.502   1.943   1.291
  392SOL     OW13206   8.360   4.966   6.454
  392SOL    HW113207   8.360   5.017   6.540
  392SOL    HW213208   8.391   5.025   6.379
  393SOL     OW13209   8.534   2.861   6.429
  393SOL    HW113210   8.579   2.866   6.519
  393SOL    HW213211   8.516   2.766   6.406
  394SOL     OW13212   6.860   5.855   5.595
  394SOL    HW113213   6.872   5.806   5.509
  394SOL    HW213214   6.910   5.808   5.668
  395SOL     OW13215   8.607   7.743   6.008
  395SOL    HW113216   8.617   7.644   6.016
  395SOL    HW213217   8.540   7.764   5.936
  396SOL     OW13218   3.156   3.150   6.681
  396SOL    HW113219   3.150   3.154   6.582
  396SOL    HW213220   3.224   3.082   6.708
  397SOL     OW13221   1.632   5.700   5.645
  397SOL    HW113222   1.708   5.636   5.631
  397SOL    HW213223   1.548   5.660   5.610
  398SOL     OW13224   5.697   3.998   5.846
  398SOL    HW113225   5.659   3.955   5.928
  398SOL    HW213226   5.680   3.939   5.767
  399SOL     OW13227   6.464   2.424   0.828
  399SOL    HW113228   6.420   2.346   0.783
  399SOL    HW213229   6.486   2.493   0.759
  400SOL     OW13230   3.500   1.724   6.479
  400SOL    HW113231   3.490   1.699   6.576
  400SOL    HW213232   3.416   1.698   6.430
  401SOL     OW13233   0.341   4.640   1.498
  401SOL    HW113234   0.398   4.683   1.427
  401SOL    HW213235   0.284   4.710   1.541
  402SOL     OW13236   8.627   6.893   0.671
  402SOL    HW113237   8.653   6.810   0.621
  402SOL    HW213238   8.622   6.970   0.607
  403SOL     OW13239   2.681   7.952   6.777
  403SOL    HW113240   2.631   8.038   6.783
  403SOL    HW213241   2.617   7.876   6.790
  404SOL     OW13242   1.580   7.201   0.449
  404SOL    HW113243   1.605   7.260   0.372
  404SOL    HW213244   1.649   7.210   0.521
  405SOL     OW13245   9.583   0.073   1.326
  405SOL    HW113246   9.484   0.066   1.342
  405SOL    HW213247   9.609   0.011   1.252
  406SOL     OW13248   8.642   2.034   0.740
  406SOL    HW113249   8.689   1.950   0.714
  406SOL    HW213250   8.703   2.112   0.722
  407SOL     OW13251   6.903   7.901   0.970
  407SOL    HW113252   6.965   7.826   0.947
  407SOL    HW213253   6.918   7.929   1.065
  408SOL     OW13254   1.257   0.003   5.324
  408SOL    HW113255   1.192   0.078   5.339
  408SOL    HW213256   1.220  -0.081   5.364
  409SOL     OW13257   3.146   0.968   6.748
  409SOL    HW113258   3.156   0.897   6.817
  409SOL    HW213259   3.072   1.030   6.773
  410SOL     OW13260   2.055   0.643   5.212
  410SOL    HW113261   2.111   0.606   5.138
  410SOL    HW213262   2.050   0.576   5.286
  411SOL     OW13263   0.539   6.909   1.253
  411SOL    HW113264   0.466   6.842   1.236
  411SOL    HW213265   0.570   6.900   1.348
  412SOL     OW13266   1.928   7.879   4.330
  412SOL    HW113267   1.841   7.917   4.359
  412SOL    HW213268   1.974   7.943   4.269
  413SOL     OW13269   7.670   6.464   6.631
  413SOL    HW113270   7.632   6.485   6.721
  413SOL    HW213271   7.738   6.533   6.607
  414SOL     OW13272   6.588   3.113   0.932
  414SOL    HW113273   6.574   3.035   0.870
  414SOL    HW213274   6.647   3.084   1.008
  415SOL     OW13275   0.711   3.360   5.351
  415SOL    HW113276   0.616   3.381   5.371
  415SOL    HW213277   0.743   3.417   5.275
  416SOL     OW13278   1.276   2.767   1.267
  416SOL    HW113279   1.188   2.743   1.308
  416SOL    HW213280   1.285   2.866   1.264
  417SOL     OW13281   5.636  -0.048   1.368
  417SOL    HW113282   5.681  -0.091   1.289
  417SOL    HW213283   5.702   0.008   1.417
  418SOL     OW13284   3.208   6.361   5.874
  418SOL    HW113285   3.222   6.284   5.812
  418SOL    HW213286   3.119   6.403   5.857
  419SOL     OW13287   0.348   0.469   5.983
  419SOL    HW113288   0.271   0.526   5.953
  419SOL    HW213289   0.330   0.435   6.075
  420SOL     OW13290   2.859   7.818   1.009
  420SOL    HW113291   2.901   7.738   0.966
  420SOL    HW213292   2.761   7.803   1.019
  421SOL     OW13293   7.721   6.469   6.079
  421SOL    HW113294   7.719   6.568   6.090
  421SOL    HW213295   7.691   6.445   5.987
  422SOL     OW13296   1.352   5.074   5.913
  422SOL    HW113297   1.318   5.087   5.820
  422SOL    HW213298   1.282   5.100   5.978
  423SOL     OW13299   2.169   6.473   5.626
  423SOL    HW113300   2.187   6.482   5.528
  423SOL    HW213301   2.089   6.526   5.651
  424SOL     OW13302   1.149   3.985   6.368
  424SOL    HW113303   1.209   3.907   6.350
  424SOL    HW213304   1.176   4.028   6.454
  425SOL     OW13305   0.503   1.750   0.898
  425SOL    HW113306   0.595   1.750   0.937
  425SOL    HW213307   0.449   1.823   0.941
  426SOL     OW13308   4.186   6.470   1.206
  426SOL    HW113309   4.275   6.478   1.251
  426SOL    HW213310   4.119   6.433   1.270
  427SOL     OW13311   4.647   4.650   5.656
  427SOL    HW113312   4.702   4.689   5.582
  427SOL    HW213313   4.672   4.554   5.670
  428SOL     OW13314   9.368   2.695   6.190
  428SOL    HW113315   9.332   2.721   6.280
  428SOL    HW213316   9.309   2.624   6.151
  429SOL     OW13317   3.934   1.837   0.631
  429SOL    HW113318   3.909   1.796   0.544
  429SOL    HW213319   3.862   1.900   0.660
  430SOL     OW13320   4.850   7.143   6.761
  430SOL    HW113321   4.762   7.131   6.807
  430SOL    HW213322   4.911   7.067   6.786
  431SOL     OW13323   7.908   0.277   0.997
  431SOL    HW113324   7.859   0.343   1.054
  431SOL    HW213325   7.977   0.229   1.052
  432SOL     OW13326   3.592   6.106   0.379
  432SOL    HW113327   3.639   6.114   0.466
  432SOL    HW213328   3.524   6.180   0.371
  433SOL     OW13329   7.468   5.232   5.443
  433SOL    HW113330   7.425   5.300   5.384
  433SOL    HW213331   7.537   5.181   5.391
  434SOL     OW13332   4.275   6.381   0.594
  434SOL    HW113333   4.206   6.361   0.524
  434SOL    HW213334   4.290   6.300   0.651
  435SOL     OW13335   9.576   5.362   0.503
  435SOL    HW113336   9.520   5.293   0.457
  435SOL    HW213337   9.559   5.358   0.602
  436SOL     OW13338   6.814   3.183   5.783
  436SOL    HW113339   6.871   3.265   5.783
  436SOL    HW213340   6.723   3.207   5.749
  437SOL     OW13341   3.646   4.911   5.719
  437SOL    HW113342   3.655   4.932   5.816
  437SOL    HW213343   3.616   4.817   5.707
  438SOL     OW13344   0.142   4.316   0.276
  438SOL    HW113345   0.169   4.412   0.265
  438SOL    HW213346   0.216   4.266   0.321
  439SOL     OW13347   0.215   1.877   5.834
  439SOL    HW113348   0.170   1.852   5.749
  439SOL    HW213349   0.165   1.837   5.911
  440SOL     OW13350   3.652   3.602   0.863
  440SOL    HW113351   3.647   3.651   0.950
  440SOL    HW213352   3.658   3.667   0.788
  441SOL     OW13353   1.916   7.239   6.606
  441SOL    HW113354   1.893   7.275   6.696
  441SOL    HW213355   1.970   7.307   6.556
  442SOL     OW13356   9.219   2.868   5.971
  442SOL    HW113357   9.193   2.957   6.006
  442SOL    HW213358   9.283   2.825   6.035
  443SOL     OW13359   2.033   1.432   6.729
  443SOL    HW113360   1.944   1.477   6.742
  443SOL    HW213361   2.099   1.473   6.792
  444SOL     OW13362   6.619   2.958   0.711
  444SOL    HW113363   6.553   2.963   0.636
  444SOL    HW213364   6.709   2.990   0.679
  445SOL     OW13365   2.422   5.699   1.368
  445SOL    HW113366   2.419   5.757   1.449
  445SOL    HW213367   2.516   5.694   1.334
  446SOL     OW13368   9.263   2.834   6.439
  446SOL    HW113369   9.205   2.902   6.394
  446SOL    HW213370   9.224   2.810   6.528
  447SOL     OW13371   6.370   7.610   0.307
  447SOL    HW113372   6.373   7.557   0.391
  447SOL    HW213373   6.342   7.551   0.231
  448SOL     OW13374   5.279   5.286   0.526
  448SOL    HW113375   5.204   5.231   0.564
  448SOL    HW213376   5.271   5.288   0.426
  449SOL     OW13377   9.280   5.340   6.321
  449SOL    HW113378   9.324   5.257   6.289
  449SOL    HW213379   9.250   5.328   6.416
  450SOL     OW13380   9.135   3.068   6.451
  450SOL    HW113381   9.170   3.153   6.412
  450SOL    HW213382   9.045   3.085   6.493
  451SOL     OW13383   1.137   0.362   6.594
  451SOL    HW113384   1.171   0.337   6.685
  451SOL    HW213385   1.132   0.462   6.588
  452SOL     OW13386   3.066   6.446   6.531
  452SOL    HW113387   2.993   6.484   6.474
  452SOL    HW213388   3.065   6.490   6.621
  453SOL     OW13389   4.413   0.523   5.540
  453SOL    HW113390   4.363   0.442   5.508
  453SOL    HW213391   4.461   0.565   5.463
  454SOL     OW13392   2.150   8.342   1.192
  454SOL    HW113393   2.104   8.277   1.132
  454SOL    HW213394   2.246   8.316   1.203
  455SOL     OW13395   9.423   4.818   0.784
  455SOL    HW113396   9.473   4.759   0.848
  455SOL    HW213397   9.405   4.767   0.700
  456SOL     OW13398   6.394   6.638   0.360
  456SOL    HW113399   6.449   6.554   0.362
  456SOL    HW213400   6.452   6.715   0.336
  457SOL     OW13401   8.965   4.726   6.909
  457SOL    HW113402   9.041   4.668   6.938
  457SOL    HW213403   8.955   4.803   6.973
  458SOL     OW13404   7.460   7.364   6.294
  458SOL    HW113405   7.395   7.289   6.308
  458SOL    HW213406   7.528   7.363   6.367
  459SOL     OW13407   3.138   7.599   6.391
  459SOL    HW113408   3.061   7.632   6.446
  459SOL    HW213409   3.146   7.654   6.308
  460SOL     OW13410   0.968   6.530   5.038
  460SOL    HW113411   1.059   6.490   5.037
  460SOL    HW213412   0.942   6.551   5.133
  461SOL     OW13413   0.355   6.890   0.685
  461SOL    HW113414   0.415   6.938   0.622
  461SOL    HW213415   0.397   6.803   0.711
  462SOL     OW13416   5.418   5.458   0.665
  462SOL    HW113417   5.363   5.392   0.614
  462SOL    HW213418   5.362   5.537   0.690
  463SOL     OW13419   0.263   7.587   6.915
  463SOL    HW113420   0.299   7.580   7.008
  463SOL    HW213421   0.212   7.504   6.893
  464SOL     OW13422   5.004   7.906   5.683
  464SOL    HW113423   5.024   7.832   5.747
  464SOL    HW213424   5.030   7.878   5.591
  465SOL     OW13425   6.870   3.469   0.306
  465SOL    HW113426   6.944   3.456   0.240
  465SOL    HW213427   6.782   3.461   0.259
  466SOL     OW13428   1.978   4.482   4.860
  466SOL    HW113429   1.958   4.385   4.870
  466SOL    HW213430   1.894   4.532   4.842
  467SOL     OW13431   4.427   5.727   0.353
  467SOL    HW113432   4.426   5.632   0.385
  467SOL    HW213433   4.521   5.759   0.346
  468SOL     OW13434   8.153   2.399   0.496
  468SOL    HW113435   8.079   2.356   0.548
  468SOL    HW213436   8.119   2.483   0.453
  469SOL     OW13437   8.868   7.399   6.573
  469SOL    HW113438   8.780   7.389   6.619
  469SOL    HW213439   8.883   7.322   6.511
  470SOL     OW13440   0.664   4.675   5.615
  470SOL    HW113441   0.735   4.625   5.566
  470SOL    HW213442   0.707   4.733   5.685
  471SOL     OW13443   2.146   4.422   1.077
  471SOL    HW113444   2.205   4.397   1.154
  471SOL    HW213445   2.056   4.447   1.111
  472SOL     OW13446   5.979   7.795   2.294
  472SOL    HW113447   6.050   7.820   2.360
  472SOL    HW213448   5.999   7.705   2.256
  473SOL     OW13449   2.605   1.172   6.000
  473SOL    HW113450   2.565   1.252   5.955
  473SOL    HW213451   2.655   1.203   6.082
  474SOL     OW13452   5.850   1.924   1.781
  474SOL    HW113453   5.846   1.845   1.841
  474SOL    HW213454   5.945   1.940   1.753
  475SOL     OW13455   1.255   5.478   4.789
  475SOL    HW113456   1.180   5.415   4.809
  475SOL    HW213457   1.285   5.466   4.695
  476SOL     OW13458   8.124   6.141   5.786
  476SOL    HW113459   8.027   6.162   5.796
  476SOL    HW213460   8.179   6.211   5.831
  477SOL     OW13461   0.950   6.784   5.887
  477SOL    HW113462   1.018   6.794   5.814
  477SOL    HW213463   0.859   6.775   5.845
  478SOL     OW13464   1.448   7.073   1.001
  478SOL    HW113465   1.380   7.139   1.032
  478SOL    HW213466   1.443   6.990   1.058
  479SOL     OW13467   5.642   1.901   0.260
  479SOL    HW113468   5.620   1.830   0.327
  479SOL    HW213469   5.599   1.880   0.173
  480SOL     OW13470   5.005   5.586   5.191
  480SOL    HW113471   4.965   5.648   5.123
  480SOL    HW213472   5.088   5.546   5.154
  481SOL     OW13473   9.106   4.648   5.281
  481SOL    HW113474   9.043   4.709   5.329
  481SOL    HW213475   9.080   4.553   5.297
  482SOL     OW13476   5.947   5.439   0.529
  482SOL    HW113477   5.862   5.468   0.574
  482SOL    HW213478   6.025   5.488   0.570
  483SOL     OW13479   1.725   1.173   1.131
  483SOL    HW113480   1.746   1.220   1.217
  483SOL    HW213481   1.630   1.144   1.130
  484SOL     OW13482   7.935   0.465   6.686
  484SOL    HW113483   7.862   0.415   6.733
  484SOL    HW213484   7.951   0.424   6.596
  485SOL     OW13485   4.711   7.794   6.327
  485SOL    HW113486   4.803   7.820   6.296
  485SOL    HW213487   4.701   7.694   6.321
  486SOL     OW13488   1.851   1.438   1.832
  486SOL    HW113489   1.946   1.417   1.857
  486SOL    HW213490   1.788   1.388   1.891
  487SOL     OW13491   8.557   2.563   6.698
  487SOL    HW113492   8.596   2.536   6.786
  487SOL    HW213493   8.495   2.491   6.665
  488SOL     OW13494   8.466   7.214   0.844
  488SOL    HW113495   8.485   7.137   0.905
  488SOL    HW213496   8.548   7.271   0.836
  489SOL     OW13497   1.299   4.242   1.385
  489SOL    HW113498   1.380   4.250   1.444
  489SOL    HW213499   1.222   4.290   1.428
  490SOL     OW13500   6.694   7.105   1.125
  490SOL    HW113501   6.685   7.178   1.193
  490SOL    HW213502   6.734   7.024   1.168
  491SOL     OW13503   2.042   7.538   6.886
  491SOL    HW113504   2.132   7.560   6.847
  491SOL    HW213505   2.028   7.590   6.969
  492SOL     OW13506   1.323   4.136   0.279
  492SOL    HW113507   1.311   4.043   0.243
  492SOL    HW213508   1.395   4.135   0.349
  493SOL     OW13509   3.691   1.971   0.291
  493SOL    HW113510   3.763   1.980   0.221
  493SOL    HW213511   3.603   1.959   0.246
  494SOL     OW13512   1.059   6.577   5.363
  494SOL    HW113513   1.008   6.622   5.436
  494SOL    HW213514   1.114   6.503   5.402
  495SOL     OW13515   2.255   1.786   6.633
  495SOL    HW113516   2.270   1.742   6.544
  495SOL    HW213517   2.339   1.782   6.687
  496SOL     OW13518   2.910   4.169   6.300
  496SOL    HW113519   2.950   4.259   6.282
  496SOL    HW213520   2.839   4.149   6.232
  497SOL     OW13521   8.800   2.586   1.022
  497SOL    HW113522   8.872   2.563   1.087
  497SOL    HW213523   8.771   2.681   1.035
  498SOL     OW13524   8.633   0.505   5.876
  498SOL    HW113525   8.656   0.603   5.876
  498SOL    HW213526   8.692   0.457   5.941
  499SOL     OW13527   3.000   6.954   1.001
  499SOL    HW113528   3.058   6.919   1.075
  499SOL    HW213529   2.904   6.950   1.030
  500SOL     OW13530   4.545   3.978   0.281
  500SOL    HW113531   4.598   3.915   0.224
  500SOL    HW213532   4.516   4.056   0.225
  501SOL     OW13533   3.332   7.944   0.348
  501SOL    HW113534   3.419   7.963   0.395
  501SOL    HW213535   3.324   8.006   0.270
  502SOL     OW13536   1.044   0.968   6.608
  502SOL    HW113537   1.069   0.959   6.704
  502SOL    HW213538   0.995   1.054   6.594
  503SOL     OW13539   1.628   1.716   0.467
  503SOL    HW113540   1.614   1.737   0.564
  503SOL    HW213541   1.725   1.706   0.449
  504SOL     OW13542   0.593   2.337   1.536
  504SOL    HW113543   0.570   2.414   1.476
  504SOL    HW213544   0.662   2.367   1.602
  505SOL     OW13545   5.678   7.584   1.136
  505SOL    HW113546   5.743   7.652   1.102
  505SOL    HW213547   5.637   7.617   1.221
  506SOL     OW13548   4.182   3.308   6.623
  506SOL    HW113549   4.093   3.269   6.648
  506SOL    HW213550   4.244   3.234   6.597
  507SOL     OW13551   2.555   0.013   5.616
  507SOL    HW113552   2.652   0.024   5.636
  507SOL    HW213553   2.520   0.095   5.571
  508SOL     OW13554   5.652   3.203   0.733
  508SOL    HW113555   5.705   3.177   0.814
  508SOL    HW213556   5.627   3.120   0.682
  509SOL     OW13557   7.256   1.878   6.270
  509SOL    HW113558   7.289   1.868   6.176
  509SOL    HW213559   7.300   1.809   6.327
  510SOL     OW13560   2.702   1.456   6.278
  510SOL    HW113561   2.757   1.373   6.278
  510SOL    HW213562   2.642   1.456   6.197
  511SOL     OW13563   4.692   7.348   0.313
  511SOL    HW113564   4.783   7.356   0.353
  511SOL    HW213565   4.660   7.439   0.286
  512SOL     OW13566   7.867   4.198   0.785
  512SOL    HW113567   7.887   4.279   0.840
  512SOL    HW213568   7.953   4.158   0.752
  513SOL     OW13569   0.189   3.198   5.902
  513SOL    HW113570   0.233   3.190   5.991
  513SOL    HW213571   0.259   3.207   5.831
  514SOL     OW13572   2.930   7.918   1.730
  514SOL    HW113573   2.970   8.000   1.771
  514SOL    HW213574   3.001   7.849   1.717
  515SOL     OW13575   1.039   5.382   1.593
  515SOL    HW113576   0.992   5.469   1.610
  515SOL    HW213577   1.131   5.386   1.630
  516SOL     OW13578   1.587   4.184   6.802
  516SOL    HW113579   1.620   4.091   6.814
  516SOL    HW213580   1.543   4.216   6.886
  517SOL     OW13581   1.143   2.042   1.002
  517SOL    HW113582   1.079   1.965   1.002
  517SOL    HW213583   1.226   2.016   0.953
  518SOL     OW13584   3.662   6.091   6.459
  518SOL    HW113585   3.743   6.112   6.513
  518SOL    HW213586   3.667   6.139   6.371
  519SOL     OW13587   1.129   7.711   6.161
  519SOL    HW113588   1.173   7.795   6.131
  519SOL    HW213589   1.128   7.707   6.261
  520SOL     OW13590   7.319   7.103   1.337
  520SOL    HW113591   7.316   7.098   1.437
  520SOL    HW213592   7.336   7.198   1.309
  521SOL     OW13593   3.476   2.726   6.610
  521SOL    HW113594   3.565   2.726   6.564
  521SOL    HW213595   3.486   2.689   6.703
  522SOL     OW13596   2.792   6.997   1.755
  522SOL    HW113597   2.836   7.073   1.802
  522SOL    HW213598   2.695   6.994   1.779
  523SOL     OW13599   8.190   7.650   6.603
  523SOL    HW113600   8.177   7.601   6.517
  523SOL    HW213601   8.121   7.722   6.612
  524SOL     OW13602   6.942   3.511   6.579
  524SOL    HW113603   6.909   3.604   6.563
  524SOL    HW213604   6.863   3.452   6.598
  525SOL     OW13605   8.306   6.767   6.186
  525SOL    HW113606   8.345   6.794   6.098
  525SOL    HW213607   8.354   6.815   6.260
  526SOL     OW13608   0.784   6.001   1.166
  526SOL    HW113609   0.833   6.002   1.079
  526SOL    HW213610   0.700   6.054   1.157
  527SOL     OW13611   5.451   1.215   1.152
  527SOL    HW113612   5.531   1.160   1.126
  527SOL    HW213613   5.371   1.156   1.157
  528SOL     OW13614   8.523   7.986   5.655
  528SOL    HW113615   8.510   8.081   5.684
  528SOL    HW213616   8.497   7.977   5.558
  529SOL     OW13617   5.445   0.204   0.857
  529SOL    HW113618   5.482   0.285   0.903
  529SOL    HW213619   5.413   0.138   0.926
  530SOL     OW13620   9.197   7.655   6.433
  530SOL    HW113621   9.228   7.740   6.390
  530SOL    HW213622   9.100   7.662   6.453
  531SOL     OW13623   5.441   0.993   1.848
  531SOL    HW113624   5.481   0.910   1.808
  531SOL    HW213625   5.507   1.035   1.910
  532SOL     OW13626   0.759   2.944   5.555
  532SOL    HW113627   0.675   2.896   5.529
  532SOL    HW213628   0.801   2.983   5.473
  533SOL     OW13629   1.792   1.958   5.268
  533SOL    HW113630   1.767   1.906   5.186
  533SOL    HW213631   1.814   2.052   5.242
  534SOL     OW13632   6.175   0.901   5.832
  534SOL    HW113633   6.249   0.950   5.786
  534SOL    HW213634   6.109   0.870   5.765
  535SOL     OW13635   6.054   3.246   1.244
  535SOL    HW113636   6.013   3.302   1.172
  535SOL    HW213637   6.059   3.300   1.328
  536SOL     OW13638   3.507   4.499   6.343
  536SOL    HW113639   3.602   4.527   6.331
  536SOL    HW213640   3.463   4.494   6.253
  537SOL     OW13641   6.191   2.400   6.481
  537SOL    HW113642   6.265   2.454   6.521
  537SOL    HW213643   6.103   2.435   6.513
  538SOL     OW13644   0.247   7.289   0.499
  538SOL    HW113645   0.243   7.379   0.543
  538SOL    HW213646   0.313   7.292   0.423
  539SOL     OW13647   2.623   1.486   0.986
  539SOL    HW113648   2.664   1.485   0.895
  539SOL    HW213649   2.694   1.468   1.055
  540SOL     OW13650   3.400   6.526   1.005
  540SOL    HW113651   3.394   6.621   1.035
  540SOL    HW213652   3.435   6.469   1.079
  541SOL     OW13653   5.531   0.604   6.623
  541SOL    HW113654   5.489   0.689   6.591
  541SOL    HW213655   5.513   0.531   6.557
  542SOL     OW13656   7.799   1.997   0.571
  542SOL    HW113657   7.720   2.059   0.561
  542SOL    HW213658   7.772   1.917   0.626
  543SOL     OW13659   0.805   4.870   5.761
  543SOL    HW113660   0.896   4.830   5.765
  543SOL    HW213661   0.808   4.954   5.705
  544SOL     OW13662   9.458   7.547   5.644
  544SOL    HW113663   9.551   7.512   5.630
  544SOL    HW213664   9.446   7.569   5.741
  545SOL     OW13665   8.669   3.560   0.829
  545SOL    HW113666   8.588   3.510   0.799
  545SOL    HW213667   8.737   3.559   0.755
  546SOL     OW13668   8.684   6.818   5.994
  546SOL    HW113669   8.605   6.788   5.942
  546SOL    HW213670   8.767   6.808   5.938
  547SOL     OW13671   5.668   5.055   1.154
  547SOL    HW113672   5.764   5.072   1.175
  547SOL    HW213673   5.617   5.141   1.162
  548SOL     OW13674   0.221   5.812   0.980
  548SOL    HW113675   0.320   5.802   0.993
  548SOL    HW213676   0.197   5.909   0.981
  549SOL     OW13677   1.034   8.191   0.809
  549SOL    HW113678   1.102   8.118   0.800
  549SOL    HW213679   1.018   8.210   0.906
  550SOL     OW13680   6.809   7.100   5.591
  550SOL    HW113681   6.866   7.055   5.660
  550SOL    HW213682   6.712   7.080   5.610
  551SOL     OW13683   9.523   0.971   6.484
  551SOL    HW113684   9.528   1.032   6.563
  551SOL    HW213685   9.601   0.909   6.484
  552SOL     OW13686   0.734   0.418   1.025
  552SOL    HW113687   0.736   0.485   1.098
  552SOL    HW213688   0.823   0.371   1.020
  553SOL     OW13689   4.519   7.758   0.809
  553SOL    HW113690   4.572   7.729   0.889
  553SOL    HW213691   4.575   7.748   0.727
  554SOL     OW13692   7.208   0.895   6.213
  554SOL    HW113693   7.218   0.990   6.240
  554SOL    HW213694   7.281   0.871   6.148
  555SOL     OW13695   8.805   5.520   5.681
  555SOL    HW113696   8.844   5.538   5.591
  555SOL    HW213697   8.875   5.536   5.751
  556SOL     OW13698   5.699   5.121   5.417
  556SOL    HW113699   5.676   5.029   5.386
  556SOL    HW213700   5.659   5.137   5.507
  557SOL     OW13701   1.146   3.723   0.243
  557SOL    HW113702   1.182   3.732   0.336
  557SOL    HW213703   1.159   3.809   0.193
  558SOL     OW13704   6.372   7.958   5.575
  558SOL    HW113705   6.465   7.973   5.608
  558SOL    HW213706   6.363   7.993   5.482
  559SOL     OW13707   4.051   8.077   6.510
  559SOL    HW113708   4.042   8.035   6.420
  559SOL    HW213709   4.017   8.014   6.580
  560SOL     OW13710   6.550   6.700   0.821
  560SOL    HW113711   6.513   6.611   0.847
  560SOL    HW213712   6.599   6.692   0.735
  561SOL     OW13713   5.985   6.080   1.549
  561SOL    HW113714   6.030   6.166   1.527
  561SOL    HW213715   5.992   6.063   1.648
  562SOL     OW13716   3.313   6.001   5.496
  562SOL    HW113717   3.334   5.903   5.486
  562SOL    HW213718   3.387   6.055   5.457
  563SOL     OW13719   5.040   5.278   6.226
  563SOL    HW113720   5.080   5.289   6.136
  563SOL    HW213721   5.027   5.181   6.245
  564SOL     OW13722   0.808   8.377   6.007
  564SOL    HW113723   0.719   8.345   5.975
  564SOL    HW213724   0.810   8.378   6.107
  565SOL     OW13725   0.529   8.179   6.454
  565SOL    HW113726   0.609   8.160   6.397
  565SOL    HW213727   0.525   8.111   6.528
  566SOL     OW13728   4.547   7.893   1.130
  566SOL    HW113729   4.473   7.825   1.133
  566SOL    HW213730   4.598   7.882   1.045
  567SOL     OW13731   5.217   5.619   1.012
  567SOL    HW113732   5.289   5.645   1.077
  567SOL    HW213733   5.196   5.697   0.953
  568SOL     OW13734   0.267   1.112   5.823
  568SOL    HW113735   0.225   1.085   5.909
  568SOL    HW213736   0.343   1.051   5.801
  569SOL     OW13737   7.433   2.438   1.106
  569SOL    HW113738   7.506   2.474   1.164
  569SOL    HW213739   7.367   2.511   1.086
  570SOL     OW13740   0.682   0.582   1.303
  570SOL    HW113741   0.734   0.650   1.355
  570SOL    HW213742   0.587   0.582   1.334
  571SOL     OW13743   8.009   5.866   0.801
  571SOL    HW113744   7.954   5.949   0.805
  571SOL    HW213745   8.077   5.868   0.875
  572SOL     OW13746   3.744   6.749   0.559
  572SOL    HW113747   3.776   6.703   0.642
  572SOL    HW213748   3.739   6.847   0.575
  573SOL     OW13749   4.115   2.888   0.939
  573SOL    HW113750   4.134   2.947   0.860
  573SOL    HW213751   4.016   2.873   0.946
  574SOL     OW13752   8.476   6.263   5.851
  574SOL    HW113753   8.495   6.197   5.924
  574SOL    HW213754   8.562   6.297   5.813
  575SOL     OW13755   5.055   7.244   0.942
  575SOL    HW113756   5.106   7.325   0.972
  575SOL    HW213757   4.993   7.215   1.014
  576SOL     OW13758   8.616   2.136   6.353
  576SOL    HW113759   8.570   2.156   6.267
  576SOL    HW213760   8.635   2.038   6.359
  577SOL     OW13761   3.686   0.752   0.935
  577SOL    HW113762   3.613   0.701   0.982
  577SOL    HW213763   3.650   0.792   0.851
  578SOL     OW13764   0.586   1.036   0.451
  578SOL    HW113765   0.663   0.972   0.451
  578SOL    HW213766   0.537   1.030   0.364
  579SOL     OW13767   7.194   5.048   5.761
  579SOL    HW113768   7.239   5.020   5.677
  579SOL    HW213769   7.140   4.972   5.797
  580SOL     OW13770   2.234   7.268   0.628
  580SOL    HW113771   2.286   7.227   0.553
  580SOL    HW213772   2.172   7.199   0.667
  581SOL     OW13773   5.294   6.940   1.964
  581SOL    HW113774   5.351   7.022   1.959
  581SOL    HW213775   5.246   6.938   2.052
  582SOL     OW13776   5.224   8.349   5.691
  582SOL    HW113777   5.211   8.405   5.609
  582SOL    HW213778   5.154   8.373   5.759
  583SOL     OW13779   3.734   6.469   6.587
  583SOL    HW113780   3.810   6.405   6.579
  583SOL    HW213781   3.735   6.512   6.678
  584SOL     OW13782   3.188   6.684   6.174
  584SOL    HW113783   3.258   6.720   6.236
  584SOL    HW213784   3.193   6.585   6.172
  585SOL     OW13785   8.032   0.282   6.488
  585SOL    HW113786   8.118   0.333   6.495
  585SOL    HW213787   7.999   0.286   6.394
  586SOL     OW13788   9.221   3.704   0.388
  586SOL    HW113789   9.225   3.643   0.309
  586SOL    HW213790   9.313   3.739   0.408
  587SOL     OW13791   7.468   6.211   5.645
  587SOL    HW113792   7.374   6.246   5.644
  587SOL    HW213793   7.502   6.204   5.552
  588SOL     OW13794   8.876   6.056   6.272
  588SOL    HW113795   8.912   6.144   6.302
  588SOL    HW213796   8.937   6.017   6.202
  589SOL     OW13797   2.414   7.662   1.674
  589SOL    HW113798   2.407   7.566   1.701
  589SOL    HW213799   2.408   7.720   1.755
  590SOL     OW13800   4.549   7.571   6.950
  590SOL    HW113801   4.453   7.573   6.975
  590SOL    HW213802   4.558   7.569   6.850
  591SOL     OW13803   8.621   5.361   0.927
  591SOL    HW113804   8.655   5.268   0.912
  591SOL    HW213805   8.696   5.426   0.912
  592SOL     OW13806   6.274   0.656   5.935
  592SOL    HW113807   6.267   0.756   5.929
  592SOL    HW213808   6.330   0.622   5.860
  593SOL     OW13809   9.032   6.258   5.179
  593SOL    HW113810   9.018   6.227   5.084
  593SOL    HW213811   8.996   6.189   5.242
  594SOL     OW13812   0.655   7.412   5.708
  594SOL    HW113813   0.649   7.327   5.761
  594SOL    HW213814   0.564   7.437   5.675
  595SOL     OW13815   6.156   5.878   6.578
  595SOL    HW113816   6.058   5.890   6.591
  595SOL    HW213817   6.199   5.966   6.558
  596SOL     OW13818   5.877   2.670   6.404
  596SOL    HW113819   5.867   2.618   6.490
  596SOL    HW213820   5.967   2.651   6.365
  597SOL     OW13821   9.362   5.743   6.399
  597SOL    HW113822   9.364   5.816   6.467
  597SOL    HW213823   9.270   5.706   6.391
  598SOL     OW13824   7.207   3.225   6.901
  598SOL    HW113825   7.272   3.153   6.874
  598SOL    HW213826   7.128   3.183   6.946
  599SOL     OW13827   3.426   2.146   6.700
  599SOL    HW113828   3.383   2.110   6.783
  599SOL    HW213829   3.522   2.167   6.718
  600SOL     OW13830   2.051   4.764   5.072
  600SOL    HW113831   2.141   4.733   5.042
  600SOL    HW213832   1.989   4.768   4.994
  601SOL     OW13833   2.746   3.913   6.777
  601SOL    HW113834   2.715   3.906   6.682
  601SOL    HW213835   2.690   3.980   6.825
  602SOL     OW13836   4.942   5.722   6.767
  602SOL    HW113837   4.928   5.630   6.805
  602SOL    HW213838   4.942   5.789   6.842
  603SOL     OW13839   2.601   3.524   6.934
  603SOL    HW113840   2.512   3.517   6.890
  603SOL    HW213841   2.601   3.472   7.019
  604SOL     OW13842   7.041   4.965   0.936
  604SOL    HW113843   6.956   5.014   0.958
  604SOL    HW213844   7.027   4.867   0.948
  605SOL     OW13845   4.572   1.904   6.815
  605SOL    HW113846   4.479   1.869   6.823
  605SOL    HW213847   4.570   2.000   6.787
  606SOL     OW13848   5.096   4.961   0.338
  606SOL    HW113849   5.174   5.011   0.300
  606SOL    HW213850   5.042   4.922   0.264
  607SOL     OW13851   6.454   6.772   6.577
  607SOL    HW113852   6.362   6.807   6.594
  607SOL    HW213853   6.456   6.674   6.596
  608SOL     OW13854   7.756   2.401   0.474
  608SOL    HW113855   7.792   2.359   0.391
  608SOL    HW213856   7.732   2.496   0.455
  609SOL     OW13857   1.069   6.331   6.866
  609SOL    HW113858   1.049   6.274   6.945
  609SOL    HW213859   1.077   6.427   6.895
  610SOL     OW13860   1.482   0.394   1.488
  610SOL    HW113861   1.535   0.477   1.505
  610SOL    HW213862   1.535   0.332   1.430
  611SOL     OW13863   5.941   4.978   6.082
  611SOL    HW113864   5.872   4.906   6.083
  611SOL    HW213865   6.031   4.938   6.068
  612SOL     OW13866   3.558   4.840   1.252
  612SOL    HW113867   3.551   4.902   1.330
  612SOL    HW213868   3.641   4.862   1.200
  613SOL     OW13869   3.444   3.370   1.233
  613SOL    HW113870   3.490   3.309   1.297
  613SOL    HW213871   3.347   3.375   1.256
  614SOL     OW13872   0.376   5.733   6.110
  614SOL    HW113873   0.351   5.769   6.020
  614SOL    HW213874   0.469   5.697   6.106
  615SOL     OW13875   6.226   5.679   6.403
  615SOL    HW113876   6.210   5.724   6.491
  615SOL    HW213877   6.195   5.584   6.407
  616SOL     OW13878   6.831   1.980   1.302
  616SOL    HW113879   6.890   2.055   1.332
  616SOL    HW213880   6.794   2.001   1.212
  617SOL     OW13881   4.042   7.512   5.102
  617SOL    HW113882   4.136   7.488   5.127
  617SOL    HW213883   4.041   7.602   5.059
  618SOL     OW13884   6.042   0.534   5.889
  618SOL    HW113885   6.003   0.606   5.832
  618SOL    HW213886   6.133   0.561   5.920
  619SOL     OW13887   0.468   0.036   4.911
  619SOL    HW113888   0.376   0.010   4.882
  619SOL    HW213889   0.492   0.124   4.871
  620SOL     OW13890   6.367   0.986   1.142
  620SOL    HW113891   6.327   1.024   1.226
  620SOL    HW213892   6.462   1.015   1.135
  621SOL     OW13893   2.975   1.473   1.503
  621SOL    HW113894   2.910   1.480   1.579
  621SOL    HW213895   3.009   1.379   1.497
  622SOL     OW13896   6.637   5.648   5.610
  622SOL    HW113897   6.545   5.660   5.573
  622SOL    HW213898   6.681   5.737   5.618
  623SOL     OW13899   4.931   5.120   1.248
  623SOL    HW113900   4.914   5.163   1.160
  623SOL    HW213901   5.004   5.052   1.239
  624SOL     OW13902   2.559   1.851   6.773
  624SOL    HW113903   2.567   1.946   6.741
  624SOL    HW213904   2.513   1.849   6.861
  625SOL     OW13905   3.650   2.526   1.645
  625SOL    HW113906   3.595   2.453   1.604
  625SOL    HW213907   3.706   2.489   1.719
  626SOL     OW13908   5.345   6.341   0.408
  626SOL    HW113909   5.255   6.313   0.443
  626SOL    HW213910   5.351   6.441   0.407
  627SOL     OW13911   3.655   1.139   1.351
  627SOL    HW113912   3.695   1.128   1.442
  627SOL    HW213913   3.726   1.160   1.285
  628SOL     OW13914   1.713   6.525   4.799
  628SOL    HW113915   1.785   6.457   4.786
  628SOL    HW213916   1.685   6.563   4.711
  629SOL     OW13917   1.926   4.988   5.537
  629SOL    HW113918   1.920   4.940   5.450
  629SOL    HW213919   1.987   5.066   5.529
  630SOL     OW13920   6.664   7.619   1.928
  630SOL    HW113921   6.738   7.552   1.921
  630SOL    HW213922   6.689   7.690   1.995
  631SOL     OW13923   5.675   0.217   6.091
  631SOL    HW113924   5.588   0.219   6.041
  631SOL    HW213925   5.751   0.217   6.026
  632SOL     OW13926   1.972   6.169   1.108
  632SOL    HW113927   1.885   6.137   1.070
  632SOL    HW213928   2.032   6.198   1.033
  633SOL     OW13929   3.988   6.758   0.416
  633SOL    HW113930   3.905   6.743   0.471
  633SOL    HW213931   4.012   6.673   0.369
  634SOL     OW13932   3.853   5.333   0.676
  634SOL    HW113933   3.919   5.404   0.698
  634SOL    HW213934   3.883   5.284   0.593
  635SOL     OW13935   5.200   2.419   1.454
  635SOL    HW113936   5.151   2.392   1.371
  635SOL    HW213937   5.151   2.493   1.499
  636SOL     OW13938   8.071   4.126   1.134
  636SOL    HW113939   8.126   4.044   1.115
  636SOL    HW213940   8.132   4.200   1.161
  637SOL     OW13941   7.151   7.658   6.290
  637SOL    HW113942   7.219   7.615   6.230
  637SOL    HW213943   7.129   7.749   6.254
  638SOL     OW13944   3.530   7.273   1.904
  638SOL    HW113945   3.598   7.255   1.975
  638SOL    HW213946   3.463   7.339   1.939
  639SOL     OW13947   1.980   1.707   6.407
  639SOL    HW113948   1.890   1.693   6.365
  639SOL    HW213949   1.973   1.694   6.506
  640SOL     OW13950   1.577   8.216   6.252
  640SOL    HW113951   1.655   8.178   6.204
  640SOL    HW213952   1.536   8.288   6.195
  641SOL     OW13953   1.824   1.644   5.842
  641SOL    HW113954   1.731   1.672   5.866
  641SOL    HW213955   1.889   1.682   5.907
  642SOL     OW13956   4.838   5.338   1.591
  642SOL    HW113957   4.912   5.287   1.550
  642SOL    HW213958   4.852   5.345   1.690
  643SOL     OW13959   0.737   5.318   6.006
  643SOL    HW113960   0.647   5.276   5.993
  643SOL    HW213961   0.730   5.391   6.074
  644SOL     OW13962   8.344   7.219   1.087
  644SOL    HW113963   8.373   7.216   0.991
  644SOL    HW213964   8.399   7.287   1.136
  645SOL     OW13965   3.663   7.002   1.036
  645SOL    HW113966   3.729   6.987   0.963
  645SOL    HW213967   3.709   7.039   1.117
  646SOL     OW13968   9.312   1.311   6.640
  646SOL    HW113969   9.216   1.305   6.612
  646SOL    HW213970   9.324   1.264   6.727
  647SOL     OW13971   0.916   6.826   5.061
  647SOL    HW113972   0.830   6.832   5.011
  647SOL    HW213973   0.964   6.743   5.035
  648SOL     OW13974   6.685   8.118   6.283
  648SOL    HW113975   6.612   8.076   6.230
  648SOL    HW213976   6.707   8.208   6.245
  649SOL     OW13977   5.948   5.707   1.130
  649SOL    HW113978   5.892   5.750   1.060
  649SOL    HW213979   6.045   5.723   1.110
  650SOL     OW13980   8.366   3.352   1.115
  650SOL    HW113981   8.299   3.331   1.186
  650SOL    HW213982   8.332   3.429   1.060
  651SOL     OW13983   4.103   0.209   0.343
  651SOL    HW113984   4.092   0.113   0.314
  651SOL    HW213985   4.199   0.227   0.362
  652SOL     OW13986   6.998   7.367   1.283
  652SOL    HW113987   7.058   7.395   1.358
  652SOL    HW213988   6.980   7.269   1.290
  653SOL     OW13989   8.593   6.057   6.039
  653SOL    HW113990   8.548   5.989   6.097
  653SOL    HW213991   8.680   6.020   6.006
  654SOL     OW13992   5.875   6.684   6.303
  654SOL    HW113993   5.828   6.622   6.240
  654SOL    HW213994   5.949   6.731   6.255
  655SOL     OW13995   4.207   2.927   1.663
  655SOL    HW113996   4.180   2.902   1.755
  655SOL    HW213997   4.129   2.966   1.614
  656SOL     OW13998   1.845   0.075   6.263
  656SOL    HW113999   1.893   0.041   6.344
  656SOL    HW214000   1.847   0.175   6.262
  657SOL     OW14001   8.096   1.539   6.660
  657SOL    HW114002   8.049   1.456   6.689
  657SOL    HW214003   8.136   1.525   6.569
  658SOL     OW14004   0.250   5.940   0.673
  658SOL    HW114005   0.281   5.924   0.580
  658SOL    HW214006   0.260   5.857   0.727
  659SOL     OW14007   5.013   7.541   1.188
  659SOL    HW114008   4.959   7.605   1.133
  659SOL    HW214009   4.967   7.453   1.190
  660SOL     OW14010   8.758   1.619   6.432
  660SOL    HW114011   8.743   1.521   6.417
  660SOL    HW214012   8.824   1.653   6.364
  661SOL     OW14013   8.130   4.988   0.409
  661SOL    HW114014   8.180   5.046   0.345
  661SOL    HW214015   8.143   5.022   0.502
  662SOL     OW14016   4.690   6.360   1.182
  662SOL    HW114017   4.616   6.305   1.143
  662SOL    HW214018   4.729   6.418   1.110
  663SOL     OW14019   6.973   6.704   0.561
  663SOL    HW114020   6.912   6.706   0.482
  663SOL    HW214021   7.066   6.681   0.530
  664SOL     OW14022   3.738   6.596   5.980
  664SOL    HW114023   3.788   6.585   6.065
  664SOL    HW214024   3.678   6.517   5.966
  665SOL     OW14025   4.493   3.091   1.879
  665SOL    HW114026   4.554   3.159   1.840
  665SOL    HW214027   4.509   3.002   1.836
  666SOL     OW14028   0.144   3.709   1.157
  666SOL    HW114029   0.227   3.678   1.204
  666SOL    HW214030   0.159   3.801   1.121
  667SOL     OW14031   4.348   3.502   6.724
  667SOL    HW114032   4.265   3.448   6.707
  667SOL    HW214033   4.422   3.467   6.668
  668SOL     OW14034   3.087   2.390   0.308
  668SOL    HW114035   3.080   2.293   0.330
  668SOL    HW214036   2.995   2.428   0.297
  669SOL     OW14037   1.908   3.151   5.514
  669SOL    HW114038   1.930   3.101   5.430
  669SOL    HW214039   1.808   3.156   5.524
  670SOL     OW14040   4.093   2.554   0.388
  670SOL    HW114041   3.999   2.520   0.391
  670SOL    HW214042   4.103   2.616   0.310
  671SOL     OW14043   0.173   4.912   6.172
  671SOL    HW114044   0.189   5.001   6.129
  671SOL    HW214045   0.191   4.919   6.271
  672SOL     OW14046   1.772   7.342   5.839
  672SOL    HW114047   1.694   7.376   5.890
  672SOL    HW214048   1.789   7.401   5.760
  673SOL     OW14049   4.695   5.106   6.407
  673SOL    HW114050   4.666   5.189   6.359
  673SOL    HW214051   4.615   5.052   6.431
  674SOL     OW14052   0.869   1.599   6.573
  674SOL    HW114053   0.841   1.647   6.490
  674SOL    HW214054   0.791   1.548   6.610
  675SOL     OW14055   4.646   3.291   1.768
  675SOL    HW114056   4.581   3.363   1.745
  675SOL    HW214057   4.737   3.318   1.738
  676SOL     OW14058   0.193   0.462   0.613
  676SOL    HW114059   0.213   0.365   0.626
  676SOL    HW214060   0.185   0.482   0.516
  677SOL     OW14061   0.744   1.492   5.287
  677SOL    HW114062   0.661   1.543   5.310
  677SOL    HW214063   0.775   1.519   5.196
  678SOL     OW14064   8.861   7.818   0.921
  678SOL    HW114065   8.765   7.847   0.912
  678SOL    HW214066   8.865   7.734   0.975
  679SOL     OW14067   9.131   8.201   5.533
  679SOL    HW114068   9.035   8.204   5.560
  679SOL    HW214069   9.157   8.288   5.490
  680SOL     OW14070   5.666   5.330   6.939
  680SOL    HW114071   5.624   5.409   6.984
  680SOL    HW214072   5.648   5.248   6.994
  681SOL     OW14073   8.719   2.615   6.124
  681SOL    HW114074   8.720   2.689   6.058
  681SOL    HW214075   8.703   2.652   6.216
  682SOL     OW14076   1.571   0.744   0.623
  682SOL    HW114077   1.529   0.795   0.548
  682SOL    HW214078   1.658   0.704   0.592
  683SOL     OW14079   7.111   0.653   0.427
  683SOL    HW114080   7.017   0.669   0.397
  683SOL    HW214081   7.172   0.719   0.382
  684SOL     OW14082   2.671   6.713   1.296
  684SOL    HW114083   2.599   6.741   1.359
  684SOL    HW214084   2.725   6.640   1.337
  685SOL     OW14085   2.327   3.573   6.818
  685SOL    HW114086   2.329   3.516   6.736
  685SOL    HW214087   2.306   3.668   6.793
  686SOL     OW14088   6.280   4.155   5.537
  686SOL    HW114089   6.301   4.198   5.625
  686SOL    HW214090   6.302   4.058   5.541
  687SOL     OW14091   7.782   6.752   6.220
  687SOL    HW114092   7.708   6.772   6.156
  687SOL    HW214093   7.835   6.836   6.237
  688SOL     OW14094   1.843   4.592   5.779
  688SOL    HW114095   1.941   4.598   5.763
  688SOL    HW214096   1.793   4.630   5.701
  689SOL     OW14097   4.698   1.524   5.207
  689SOL    HW114098   4.693   1.440   5.260
  689SOL    HW214099   4.609   1.569   5.205
  690SOL     OW14100   3.661   0.500   0.657
  690SOL    HW114101   3.579   0.470   0.707
  690SOL    HW214102   3.730   0.428   0.659
  691SOL     OW14103   4.192   3.338   5.428
  691SOL    HW114104   4.167   3.242   5.439
  691SOL    HW214105   4.133   3.381   5.360
  692SOL     OW14106   5.308   2.152   1.495
  692SOL    HW114107   5.282   2.109   1.409
  692SOL    HW214108   5.275   2.247   1.497
  693SOL     OW14109   4.208   2.623   0.762
  693SOL    HW114110   4.214   2.640   0.860
  693SOL    HW214111   4.153   2.695   0.719
  694SOL     OW14112   5.445   8.120   2.087
  694SOL    HW114113   5.544   8.130   2.093
  694SOL    HW214114   5.406   8.114   2.178
  695SOL     OW14115   5.769   2.187   1.391
  695SOL    HW114116   5.681   2.214   1.429
  695SOL    HW214117   5.759   2.167   1.293
  696SOL     OW14118   2.710   0.519   6.672
  696SOL    HW114119   2.688   0.489   6.765
  696SOL    HW214120   2.625   0.538   6.622
  697SOL     OW14121   8.305   4.308   6.237
  697SOL    HW114122   8.335   4.394   6.196
  697SOL    HW214123   8.365   4.285   6.314
  698SOL     OW14124   1.949   0.086   5.628
  698SOL    HW114125   1.914   0.000   5.591
  698SOL    HW214126   1.961   0.152   5.554
  699SOL     OW14127   5.701   5.500   1.188
  699SOL    HW114128   5.647   5.580   1.212
  699SOL    HW214129   5.640   5.424   1.162
  700SOL     OW14130   6.441   1.008   1.474
  700SOL    HW114131   6.497   0.935   1.435
  700SOL    HW214132   6.347   0.978   1.483
  701SOL     OW14133   1.544   6.104   5.651
  701SOL    HW114134   1.510   6.042   5.580
  701SOL    HW214135   1.550   6.054   5.738
  702SOL     OW14136   6.890   3.703   1.198
  702SOL    HW114137   6.826   3.627   1.197
  702SOL    HW214138   6.966   3.684   1.136
  703SOL     OW14139   5.912   1.413   1.612
  703SOL    HW114140   5.845   1.454   1.675
  703SOL    HW214141   5.942   1.325   1.648
  704SOL     OW14142   2.428   0.954   0.526
  704SOL    HW114143   2.427   1.006   0.612
  704SOL    HW214144   2.522   0.944   0.495
  705SOL     OW14145   5.876   0.086   5.717
  705SOL    HW114146   5.866   0.023   5.794
  705SOL    HW214147   5.789   0.135   5.702
  706SOL     OW14148   1.010   0.145   5.264
  706SOL    HW114149   1.086   0.207   5.242
  706SOL    HW214150   0.938   0.196   5.310
  707SOL     OW14151   6.460   3.197   1.744
  707SOL    HW114152   6.392   3.269   1.760
  707SOL    HW214153   6.530   3.231   1.681
  708SOL     OW14154   7.188   0.179   1.249
  708SOL    HW114155   7.265   0.182   1.313
  708SOL    HW214156   7.222   0.186   1.156
  709SOL     OW14157   8.997   2.520   6.470
  709SOL    HW114158   9.092   2.492   6.481
  709SOL    HW214159   8.947   2.452   6.417
  710SOL     OW14160   4.667   6.041   1.149
  710SOL    HW114161   4.592   6.060   1.086
  710SOL    HW214162   4.634   6.051   1.244
  711SOL     OW14163   4.800   6.927   0.292
  711SOL    HW114164   4.712   6.920   0.244
  711SOL    HW214165   4.784   6.934   0.390
  712SOL     OW14166   5.061   7.453   6.803
  712SOL    HW114167   5.094   7.395   6.728
  712SOL    HW214168   4.998   7.521   6.766
  713SOL     OW14169   5.230   2.262   6.498
  713SOL    HW114170   5.260   2.338   6.555
  713SOL    HW214171   5.172   2.296   6.424
  714SOL     OW14172   2.723   4.078   6.140
  714SOL    HW114173   2.663   3.998   6.156
  714SOL    HW214174   2.788   4.057   6.067
  715SOL     OW14175   4.452   7.070   2.090
  715SOL    HW114176   4.530   7.111   2.138
  715SOL    HW214177   4.389   7.031   2.157
  716SOL     OW14178   2.908   7.537   6.560
  716SOL    HW114179   2.906   7.560   6.657
  716SOL    HW214180   2.835   7.585   6.512
  717SOL     OW14181   2.522   6.971   1.781
  717SOL    HW114182   2.450   7.038   1.766
  717SOL    HW214183   2.482   6.886   1.815
  718SOL     OW14184   3.189   6.775   1.559
  718SOL    HW114185   3.160   6.713   1.632
  718SOL    HW214186   3.271   6.824   1.588
  719SOL     OW14187   3.220   3.819   6.479
  719SOL    HW114188   3.150   3.854   6.416
  719SOL    HW214189   3.233   3.721   6.464
  720SOL     OW14190   5.181   8.150   0.287
  720SOL    HW114191   5.233   8.122   0.206
  720SOL    HW214192   5.203   8.245   0.309
  721SOL     OW14193   8.373   2.911   1.018
  721SOL    HW114194   8.338   2.835   1.073
  721SOL    HW214195   8.414   2.979   1.079
  722SOL     OW14196   5.116   5.352   6.644
  722SOL    HW114197   5.206   5.392   6.655
  722SOL    HW214198   5.050   5.398   6.704
  723SOL     OW14199   4.026   8.089   2.259
  723SOL    HW114200   3.960   8.092   2.334
  723SOL    HW214201   4.023   7.999   2.216
  724SOL     OW14202   3.975   0.903   6.295
  724SOL    HW114203   3.935   0.887   6.385
  724SOL    HW214204   4.072   0.925   6.305
  725SOL     OW14205   8.234   6.312   5.973
  725SOL    HW114206   8.321   6.285   5.930
  725SOL    HW214207   8.232   6.280   6.067
  726SOL     OW14208   9.043   7.298   0.519
  726SOL    HW114209   9.135   7.289   0.557
  726SOL    HW214210   8.997   7.209   0.522
  727SOL     OW14211   2.307   6.754   1.062
  727SOL    HW114212   2.316   6.801   1.149
  727SOL    HW214213   2.385   6.693   1.048
  728SOL     OW14214   6.352   7.319   6.955
  728SOL    HW114215   6.312   7.284   6.870
  728SOL    HW214216   6.346   7.249   7.026
  729SOL     OW14217   1.715   2.401   0.999
  729SOL    HW114218   1.747   2.496   0.989
  729SOL    HW214219   1.793   2.341   1.016
  730SOL     OW14220   2.838   5.851   1.199
  730SOL    HW114221   2.840   5.763   1.247
  730SOL    HW214222   2.778   5.914   1.248
  731SOL     OW14223   3.237   5.094   0.364
  731SOL    HW114224   3.164   5.140   0.414
  731SOL    HW214225   3.210   5.001   0.341
  732SOL     OW14226   3.514   1.794   1.127
  732SOL    HW114227   3.444   1.787   1.055
  732SOL    HW214228   3.554   1.885   1.126
  733SOL     OW14229   9.530   6.627   6.683
  733SOL    HW114230   9.472   6.706   6.663
  733SOL    HW214231   9.597   6.614   6.609
  734SOL     OW14232   1.710   4.303   0.327
  734SOL    HW114233   1.786   4.261   0.277
  734SOL    HW214234   1.726   4.401   0.337
  735SOL     OW14235   2.760   8.399   6.358
  735SOL    HW114236   2.706   8.337   6.414
  735SOL    HW214237   2.699   8.460   6.307
  736SOL     OW14238   3.893   4.974   6.560
  736SOL    HW114239   3.794   4.967   6.548
  736SOL    HW214240   3.916   5.066   6.593
  737SOL     OW14241   2.788   3.213   6.539
  737SOL    HW114242   2.866   3.266   6.505
  737SOL    HW214243   2.773   3.233   6.636
  738SOL     OW14244   9.182  -0.042   5.472
  738SOL    HW114245   9.084  -0.021   5.466
  738SOL    HW214246   9.233   0.044   5.479
  739SOL     OW14247   7.141   7.575   5.338
  739SOL    HW114248   7.214   7.545   5.275
  739SOL    HW214249   7.061   7.601   5.285
  740SOL     OW14250   6.374   5.728   0.535
  740SOL    HW114251   6.473   5.733   0.549
  740SOL    HW214252   6.351   5.766   0.445
  741SOL     OW14253   8.570   4.074   5.251
  741SOL    HW114254   8.548   4.171   5.252
  741SOL    HW214255   8.624   4.052   5.170
  742SOL     OW14256   4.463   6.502   2.203
  742SOL    HW114257   4.418   6.585   2.171
  742SOL    HW214258   4.562   6.513   2.195
  743SOL     OW14259   4.179   3.419   6.145
  743SOL    HW114260   4.271   3.405   6.109
  743SOL    HW214261   4.122   3.340   6.123
  744SOL     OW14262   3.766   2.127   5.785
  744SOL    HW114263   3.810   2.041   5.761
  744SOL    HW214264   3.687   2.142   5.726
  745SOL     OW14265   0.496   5.188   0.376
  745SOL    HW114266   0.466   5.145   0.461
  745SOL    HW214267   0.557   5.265   0.397
  746SOL     OW14268   2.144   3.416   5.913
  746SOL    HW114269   2.195   3.500   5.898
  746SOL    HW214270   2.077   3.404   5.840
  747SOL     OW14271   0.537   4.780   5.906
  747SOL    HW114272   0.450   4.752   5.948
  747SOL    HW214273   0.534   4.762   5.808
  748SOL     OW14274   4.430   8.126   6.315
  748SOL    HW114275   4.423   8.029   6.290
  748SOL    HW214276   4.525   8.148   6.335
  749SOL     OW14277   1.558   8.272   6.560
  749SOL    HW114278   1.632   8.219   6.517
  749SOL    HW214279   1.470   8.242   6.523
  750SOL     OW14280   6.571   0.263   0.485
  750SOL    HW114281   6.621   0.331   0.539
  750SOL    HW214282   6.635   0.208   0.432
  751SOL     OW14283   5.676   1.045   6.341
  751SOL    HW114284   5.702   1.057   6.245
  751SOL    HW214285   5.734   0.975   6.383
  752SOL     OW14286   7.953   4.742   6.370
  752SOL    HW114287   7.905   4.728   6.283
  752SOL    HW214288   8.051   4.729   6.356
  753SOL     OW14289   4.155   8.185   0.752
  753SOL    HW114290   4.239   8.139   0.781
  753SOL    HW214291   4.129   8.153   0.661
  754SOL     OW14292   3.833   4.238   1.663
  754SOL    HW114293   3.890   4.185   1.726
  754SOL    HW214294   3.764   4.289   1.715
  755SOL     OW14295   0.352   6.724   1.188
  755SOL    HW114296   0.329   6.647   1.248
  755SOL    HW214297   0.393   6.690   1.103
  756SOL     OW14298   6.339   1.668   0.740
  756SOL    HW114299   6.261   1.611   0.715
  756SOL    HW214300   6.386   1.628   0.818
  757SOL     OW14301   7.880   8.426   5.397
  757SOL    HW114302   7.909   8.431   5.302
  757SOL    HW214303   7.792   8.473   5.407
  758SOL     OW14304   3.814   4.207   1.395
  758SOL    HW114305   3.832   4.220   1.493
  758SOL    HW214306   3.760   4.123   1.382
  759SOL     OW14307   4.357   6.782   5.491
  759SOL    HW114308   4.269   6.739   5.510
  759SOL    HW214309   4.347   6.846   5.415
  760SOL     OW14310   9.082   4.515   6.027
  760SOL    HW114311   9.064   4.431   6.079
  760SOL    HW214312   9.130   4.492   5.943
  761SOL     OW14313   4.286   1.429   0.659
  761SOL    HW114314   4.310   1.513   0.708
  761SOL    HW214315   4.207   1.446   0.601
  762SOL     OW14316   3.802   2.075   1.767
  762SOL    HW114317   3.754   2.160   1.745
  762SOL    HW214318   3.896   2.095   1.792
  763SOL     OW14319   6.389   3.886   6.912
  763SOL    HW114320   6.303   3.927   6.944
  763SOL    HW214321   6.428   3.943   6.840
  764SOL     OW14322   5.537   0.798   1.601
  764SOL    HW114323   5.527   0.853   1.518
  764SOL    HW214324   5.613   0.734   1.590
  765SOL     OW14325   4.753   6.940   6.602
  765SOL    HW114326   4.803   7.013   6.649
  765SOL    HW214327   4.719   6.975   6.514
  766SOL     OW14328   4.526   5.088   5.985
  766SOL    HW114329   4.560   5.026   5.914
  766SOL    HW214330   4.602   5.123   6.039
  767SOL     OW14331   7.889   3.730   5.888
  767SOL    HW114332   7.926   3.639   5.908
  767SOL    HW214333   7.817   3.723   5.819
  768SOL     OW14334   1.579   2.302   5.700
  768SOL    HW114335   1.627   2.352   5.628
  768SOL    HW214336   1.486   2.282   5.670
  769SOL     OW14337   7.675   6.015   6.680
  769SOL    HW114338   7.586   6.024   6.634
  769SOL    HW214339   7.714   6.106   6.693
  770SOL     OW14340   7.180   6.487   6.024
  770SOL    HW114341   7.179   6.581   5.989
  770SOL    HW214342   7.235   6.483   6.107
  771SOL     OW14343   2.173   1.095   0.890
  771SOL    HW114344   2.193   1.113   0.986
  771SOL    HW214345   2.074   1.095   0.876
  772SOL     OW14346   8.465   2.296   6.865
  772SOL    HW114347   8.370   2.273   6.886
  772SOL    HW214348   8.505   2.225   6.806
  773SOL     OW14349   1.679   4.837   0.999
  773SOL    HW114350   1.759   4.804   0.949
  773SOL    HW214351   1.619   4.887   0.937
  774SOL     OW14352   3.581   5.942   1.684
  774SOL    HW114353   3.641   5.966   1.760
  774SOL    HW214354   3.636   5.915   1.605
  775SOL     OW14355   3.515   5.194   1.209
  775SOL    HW114356   3.518   5.170   1.111
  775SOL    HW214357   3.475   5.286   1.219
  776SOL     OW14358   4.631   7.637   5.074
  776SOL    HW114359   4.550   7.620   5.019
  776SOL    HW214360   4.713   7.624   5.018
  777SOL     OW14361   6.376   1.096   5.745
  777SOL    HW114362   6.381   1.171   5.679
  777SOL    HW214363   6.439   1.023   5.718
  778SOL     OW14364   7.309   8.297   0.593
  778SOL    HW114365   7.251   8.217   0.581
  778SOL    HW214366   7.253   8.374   0.625
  779SOL     OW14367   3.714   6.194   6.198
  779SOL    HW114368   3.645   6.134   6.158
  779SOL    HW214369   3.777   6.224   6.126
  780SOL     OW14370   5.862   0.379   6.947
  780SOL    HW114371   5.806   0.430   6.882
  780SOL    HW214372   5.810   0.299   6.979
  781SOL     OW14373   8.737   6.775   0.274
  781SOL    HW114374   8.834   6.757   0.289
  781SOL    HW214375   8.688   6.688   0.265
  782SOL     OW14376   6.885   7.417   1.908
  782SOL    HW114377   6.976   7.456   1.896
  782SOL    HW214378   6.893   7.320   1.930
  783SOL     OW14379   8.112   3.314   0.768
  783SOL    HW114380   8.044   3.382   0.795
  783SOL    HW214381   8.140   3.330   0.674
  784SOL     OW14382   1.215   2.994   6.820
  784SOL    HW114383   1.184   3.034   6.906
  784SOL    HW214384   1.136   2.963   6.767
  785SOL     OW14385   7.218   4.945   1.409
  785SOL    HW114386   7.301   4.973   1.458
  785SOL    HW214387   7.237   4.862   1.357
  786SOL     OW14388   2.199   8.372   6.240
  786SOL    HW114389   2.221   8.275   6.243
  786SOL    HW214390   2.265   8.423   6.294
  787SOL     OW14391   0.870   2.435   6.291
  787SOL    HW114392   0.914   2.456   6.379
  787SOL    HW214393   0.774   2.412   6.307
  788SOL     OW14394   8.033   2.400   5.563
  788SOL    HW114395   8.120   2.399   5.612
  788SOL    HW214396   8.050   2.396   5.465
  789SOL     OW14397   7.083   0.713   6.409
  789SOL    HW114398   6.995   0.755   6.428
  789SOL    HW214399   7.141   0.776   6.358
  790SOL     OW14400   4.502   2.655   6.881
  790SOL    HW114401   4.483   2.596   6.802
  790SOL    HW214402   4.597   2.641   6.911
  791SOL     OW14403   2.383   8.389   5.253
  791SOL    HW114404   2.416   8.469   5.203
  791SOL    HW214405   2.429   8.307   5.218
  792SOL     OW14406   0.153   5.564   1.352
  792SOL    HW114407   0.067   5.606   1.322
  792SOL    HW214408   0.223   5.634   1.360
  793SOL     OW14409   4.287   0.127   6.157
  793SOL    HW114410   4.330   0.188   6.090
  793SOL    HW214411   4.212   0.078   6.114
  794SOL     OW14412   3.030   1.857   1.690
  794SOL    HW114413   3.129   1.843   1.682
  794SOL    HW214414   2.994   1.891   1.603
  795SOL     OW14415   6.716   3.127   6.416
  795SOL    HW114416   6.747   3.117   6.321
  795SOL    HW214417   6.729   3.040   6.464
  796SOL     OW14418   8.855   3.835   0.652
  796SOL    HW114419   8.865   3.736   0.647
  796SOL    HW214420   8.777   3.863   0.596
  797SOL     OW14421   1.925  -0.003   6.879
  797SOL    HW114422   1.891  -0.030   6.970
  797SOL    HW214423   2.025   0.002   6.880
  798SOL     OW14424   0.158   2.030   0.688
  798SOL    HW114425   0.128   2.041   0.783
  798SOL    HW214426   0.225   2.101   0.665
  799SOL     OW14427   3.292   1.899   1.696
  799SOL    HW114428   3.290   1.884   1.795
  799SOL    HW214429   3.299   1.996   1.677
  800SOL     OW14430   7.789   6.526   1.071
  800SOL    HW114431   7.780   6.437   1.115
  800SOL    HW214432   7.707   6.581   1.088
  801SOL     OW14433   3.455   1.638   1.325
  801SOL    HW114434   3.465   1.669   1.420
  801SOL    HW214435   3.488   1.709   1.263
  802SOL     OW14436   0.435   7.624   1.627
  802SOL    HW114437   0.396   7.592   1.714
  802SOL    HW214438   0.535   7.618   1.631
  803SOL     OW14439   6.402   4.646   6.699
  803SOL    HW114440   6.359   4.595   6.624
  803SOL    HW214441   6.497   4.665   6.676
  804SOL     OW14442   8.372   1.330   0.788
  804SOL    HW114443   8.470   1.321   0.770
  804SOL    HW214444   8.336   1.408   0.739
  805SOL     OW14445   1.672   1.716   0.747
  805SOL    HW114446   1.667   1.777   0.827
  805SOL    HW214447   1.621   1.632   0.767
  806SOL     OW14448   8.572   1.515   0.527
  806SOL    HW114449   8.625   1.561   0.599
  806SOL    HW214450   8.534   1.584   0.465
  807SOL     OW14451   9.068   3.087   0.951
  807SOL    HW114452   9.088   2.991   0.972
  807SOL    HW214453   9.098   3.107   0.857
  808SOL     OW14454   1.764   3.548   1.335
  808SOL    HW114455   1.757   3.564   1.433
  808SOL    HW214456   1.818   3.466   1.318
  809SOL     OW14457   5.398   0.702   6.954
  809SOL    HW114458   5.408   0.660   7.044
  809SOL    HW214459   5.445   0.645   6.886
  810SOL     OW14460   0.828   6.723   1.837
  810SOL    HW114461   0.875   6.657   1.895
  810SOL    HW214462   0.882   6.808   1.834
  811SOL     OW14463   0.892   7.429   6.924
  811SOL    HW114464   0.951   7.365   6.877
  811SOL    HW214465   0.876   7.398   7.018
  812SOL     OW14466   6.118   8.237   6.608
  812SOL    HW114467   6.092   8.320   6.657
  812SOL    HW214468   6.143   8.166   6.673
  813SOL     OW14469   3.989   2.090   6.482
  813SOL    HW114470   3.954   2.002   6.452
  813SOL    HW214471   4.018   2.084   6.577
  814SOL     OW14472   1.181   1.441   5.854
  814SOL    HW114473   1.224   1.368   5.906
  814SOL    HW214474   1.083   1.420   5.842
  815SOL     OW14475   1.831   1.794   0.263
  815SOL    HW114476   1.875   1.883   0.268
  815SOL    HW214477   1.733   1.806   0.249
  816SOL     OW14478   4.554   1.355   0.968
  816SOL    HW114479   4.575   1.372   1.064
  816SOL    HW214480   4.523   1.261   0.957
  817SOL     OW14481   5.739   7.030   6.325
  817SOL    HW114482   5.700   7.028   6.233
  817SOL    HW214483   5.832   6.992   6.323
  818SOL     OW14484   8.008   1.104   0.870
  818SOL    HW114485   7.947   1.035   0.909
  818SOL    HW214486   8.004   1.100   0.771
  819SOL     OW14487   3.506   0.506   6.576
  819SOL    HW114488   3.550   0.594   6.591
  819SOL    HW214489   3.426   0.497   6.636
  820SOL     OW14490   0.313   5.651   0.698
  820SOL    HW114491   0.222   5.640   0.738
  820SOL    HW214492   0.316   5.603   0.610
  821SOL     OW14493   5.011   1.551   1.136
  821SOL    HW114494   4.949   1.619   1.174
  821SOL    HW214495   5.028   1.571   1.040
  822SOL     OW14496   3.572   2.233   0.639
  822SOL    HW114497   3.478   2.255   0.664
  822SOL    HW214498   3.635   2.291   0.691
  823SOL     OW14499   5.310   1.210   1.874
  823SOL    HW114500   5.341   1.117   1.858
  823SOL    HW214501   5.257   1.215   1.959
  824SOL     OW14502   1.702   2.413   1.314
  824SOL    HW114503   1.619   2.387   1.363
  824SOL    HW214504   1.687   2.403   1.215
  825SOL     OW14505   5.996   6.416   0.915
  825SOL    HW114506   5.943   6.366   0.984
  825SOL    HW214507   5.939   6.485   0.871
  826SOL     OW14508   7.654   6.367   5.799
  826SOL    HW114509   7.622   6.282   5.757
  826SOL    HW214510   7.581   6.434   5.799
  827SOL     OW14511   1.173   0.308   6.854
  827SOL    HW114512   1.238   0.275   6.922
  827SOL    HW214513   1.081   0.307   6.892
  828SOL     OW14514   3.873   3.509   5.999
  828SOL    HW114515   3.937   3.487   6.072
  828SOL    HW214516   3.861   3.430   5.939
  829SOL     OW14517   0.386   8.428   1.444
  829SOL    HW114518   0.338   8.515   1.441
  829SOL    HW214519   0.358   8.377   1.525
  830SOL     OW14520   5.940   6.298   6.172
  830SOL    HW114521   6.006   6.283   6.245
  830SOL    HW214522   5.913   6.211   6.131
  831SOL     OW14523   0.997   7.734   6.634
  831SOL    HW114524   0.975   7.752   6.730
  831SOL    HW214525   0.966   7.642   6.609
  832SOL     OW14526   2.682   1.797   5.719
  832SOL    HW114527   2.749   1.836   5.656
  832SOL    HW214528   2.611   1.749   5.668
  833SOL     OW14529   4.895   3.529   1.522
  833SOL    HW114530   4.831   3.594   1.562
  833SOL    HW214531   4.948   3.574   1.450
  834SOL     OW14532   2.176   0.911   5.924
  834SOL    HW114533   2.151   0.908   6.021
  834SOL    HW214534   2.275   0.901   5.915
  835SOL     OW14535   1.448   1.120   5.744
  835SOL    HW114536   1.481   1.034   5.704
  835SOL    HW214537   1.359   1.143   5.704
  836SOL     OW14538   4.092   3.892   1.123
  836SOL    HW114539   4.087   3.911   1.025
  836SOL    HW214540   4.086   3.978   1.174
  837SOL     OW14541   7.917   8.390   6.692
  837SOL    HW114542   7.879   8.456   6.757
  837SOL    HW214543   7.923   8.300   6.735
  838SOL     OW14544   1.622   0.640   1.263
  838SOL    HW114545   1.716   0.628   1.230
  838SOL    HW214546   1.561   0.576   1.217
  839SOL     OW14547   6.558   6.067   1.027
  839SOL    HW114548   6.486   6.046   1.093
  839SOL    HW214549   6.647   6.054   1.070
  840SOL     OW14550   5.186   1.822   1.795
  840SOL    HW114551   5.149   1.758   1.862
  840SOL    HW214552   5.208   1.908   1.840
  841SOL     OW14553   1.735   5.265   5.593
  841SOL    HW114554   1.738   5.228   5.500
  841SOL    HW214555   1.644   5.252   5.632
  842SOL     OW14556   2.920   2.275   1.046
  842SOL    HW114557   2.987   2.349   1.042
  842SOL    HW214558   2.828   2.313   1.038
  843SOL     OW14559   4.212   0.637   2.295
  843SOL    HW114560   4.129   0.616   2.244
  843SOL    HW214561   4.193   0.633   2.393
  844SOL     OW14562   7.905   0.337   0.442
  844SOL    HW114563   7.965   0.389   0.502
  844SOL    HW214564   7.951   0.253   0.413
  845SOL     OW14565   9.527   6.913   4.939
  845SOL    HW114566   9.617   6.919   4.896
  845SOL    HW214567   9.460   6.959   4.882
  846SOL     OW14568   2.790   3.106   1.567
  846SOL    HW114569   2.733   3.166   1.622
  846SOL    HW214570   2.812   3.024   1.619
  847SOL     OW14571   4.812   0.615   6.137
  847SOL    HW114572   4.909   0.621   6.113
  847SOL    HW214573   4.794   0.671   6.218
  848SOL     OW14574   9.019   4.510   0.562
  848SOL    HW114575   8.944   4.452   0.591
  848SOL    HW214576   9.006   4.603   0.597
  849SOL     OW14577   4.157   4.052   6.029
  849SOL    HW114578   4.062   4.036   6.002
  849SOL    HW214579   4.213   4.063   5.947
  850SOL     OW14580   2.933   5.653   0.755
  850SOL    HW114581   2.868   5.579   0.735
  850SOL    HW214582   3.023   5.614   0.773
  851SOL     OW14583   5.521   4.443   1.663
  851SOL    HW114584   5.491   4.358   1.705
  851SOL    HW214585   5.443   4.504   1.651
  852SOL     OW14586   0.714   6.082   0.500
  852SOL    HW114587   0.801   6.132   0.506
  852SOL    HW214588   0.718   6.020   0.422
  853SOL     OW14589   5.615   5.976   6.304
  853SOL    HW114590   5.561   5.940   6.381
  853SOL    HW214591   5.598   6.074   6.295
  854SOL     OW14592   1.392   7.532   6.445
  854SOL    HW114593   1.370   7.446   6.491
  854SOL    HW214594   1.307   7.578   6.420
  855SOL     OW14595   8.810   5.823   6.849
  855SOL    HW114596   8.753   5.793   6.773
  855SOL    HW214597   8.799   5.921   6.863
  856SOL     OW14598   9.228   4.964   0.900
  856SOL    HW114599   9.253   5.004   0.988
  856SOL    HW214600   9.309   4.924   0.856
  857SOL     OW14601   4.313   0.652   0.272
  857SOL    HW114602   4.236   0.713   0.252
  857SOL    HW214603   4.316   0.578   0.205
  858SOL     OW14604   6.117   5.444   0.903
  858SOL    HW114605   6.164   5.518   0.952
  858SOL    HW214606   6.021   5.442   0.929
  859SOL     OW14607   1.234   1.905   5.163
  859SOL    HW114608   1.330   1.898   5.135
  859SOL    HW214609   1.209   2.001   5.174
  860SOL     OW14610   2.783   0.193   1.387
  860SOL    HW114611   2.687   0.220   1.392
  860SOL    HW214612   2.820   0.215   1.297
  861SOL     OW14613   8.722   6.370   5.829
  861SOL    HW114614   8.772   6.376   5.743
  861SOL    HW214615   8.786   6.376   5.906
  862SOL     OW14616   0.752   6.411   6.431
  862SOL    HW114617   0.678   6.355   6.392
  862SOL    HW214618   0.713   6.487   6.482
  863SOL     OW14619   3.514   5.004   5.498
  863SOL    HW114620   3.566   4.956   5.569
  863SOL    HW214621   3.425   4.959   5.485
  864SOL     OW14622   8.424  -0.001   6.921
  864SOL    HW114623   8.499   0.008   6.986
  864SOL    HW214624   8.373  -0.085   6.941
  865SOL     OW14625   1.227   0.840   1.302
  865SOL    HW114626   1.182   0.784   1.371
  865SOL    HW214627   1.184   0.824   1.213
  866SOL     OW14628   1.140   2.321   0.993
  866SOL    HW114629   1.199   2.354   0.919
  866SOL    HW214630   1.138   2.221   0.993
  867SOL     OW14631   8.395   4.004   0.983
  867SOL    HW114632   8.459   3.930   0.967
  867SOL    HW214633   8.333   3.979   1.058
  868SOL     OW14634   2.250   8.111   6.349
  868SOL    HW114635   2.215   8.142   6.437
  868SOL    HW214636   2.350   8.114   6.350
  869SOL     OW14637   6.514   8.133   1.257
  869SOL    HW114638   6.537   8.154   1.162
  869SOL    HW214639   6.534   8.036   1.276
  870SOL     OW14640   0.415   2.581   6.461
  870SOL    HW114641   0.343   2.511   6.466
  870SOL    HW214642   0.390   2.650   6.393
  871SOL     OW14643   5.216   8.145   1.670
  871SOL    HW114644   5.204   8.085   1.591
  871SOL    HW214645   5.295   8.114   1.724
  872SOL     OW14646   8.392   5.038   6.725
  872SOL    HW114647   8.457   5.056   6.799
  872SOL    HW214648   8.355   5.125   6.692
  873SOL     OW14649   1.993   2.354   1.065
  873SOL    HW114650   1.984   2.261   1.029
  873SOL    HW214651   2.077   2.395   1.031
  874SOL     OW14652   1.940   1.656   1.002
  874SOL    HW114653   1.848   1.646   1.039
  874SOL    HW214654   2.003   1.597   1.053
  875SOL     OW14655   0.901   7.988   0.992
  875SOL    HW114656   0.862   7.907   0.947
  875SOL    HW214657   0.982   7.961   1.045
  876SOL     OW14658   2.316   5.651   0.293
  876SOL    HW114659   2.276   5.637   0.383
  876SOL    HW214660   2.399   5.707   0.301
  877SOL     OW14661   8.832   0.872   5.996
  877SOL    HW114662   8.890   0.953   5.989
  877SOL    HW214663   8.769   0.869   5.918
  878SOL     OW14664   1.252   6.189   5.320
  878SOL    HW114665   1.213   6.228   5.403
  878SOL    HW214666   1.255   6.260   5.249
  879SOL     OW14667   4.273   5.125   6.267
  879SOL    HW114668   4.255   5.105   6.170
  879SOL    HW214669   4.365   5.161   6.277
  880SOL     OW14670   5.220   7.567   0.671
  880SOL    HW114671   5.211   7.470   0.696
  880SOL    HW214672   5.287   7.575   0.597
  881SOL     OW14673   9.455   4.801   6.026
  881SOL    HW114674   9.442   4.870   5.955
  881SOL    HW214675   9.537   4.821   6.079
  882SOL     OW14676   6.951   0.951   0.521
  882SOL    HW114677   6.907   0.870   0.482
  882SOL    HW214678   7.029   0.977   0.464
  883SOL     OW14679   3.640   0.196   5.983
  883SOL    HW114680   3.676   0.212   6.075
  883SOL    HW214681   3.541   0.212   5.982
  884SOL     OW14682   8.306   7.692   6.192
  884SOL    HW114683   8.342   7.622   6.130
  884SOL    HW214684   8.359   7.691   6.277
  885SOL     OW14685   2.449   3.305   5.955
  885SOL    HW114686   2.516   3.257   5.899
  885SOL    HW214687   2.468   3.403   5.954
  886SOL     OW14688   1.017   6.320   6.021
  886SOL    HW114689   0.946   6.363   6.076
  886SOL    HW214690   1.035   6.376   5.940
  887SOL     OW14691   1.955   5.415   1.142
  887SOL    HW114692   2.009   5.344   1.187
  887SOL    HW214693   1.860   5.385   1.133
  888SOL     OW14694   9.392   6.444   0.738
  888SOL    HW114695   9.316   6.499   0.774
  888SOL    HW214696   9.440   6.399   0.813
  889SOL     OW14697   8.742   4.832   5.328
  889SOL    HW114698   8.666   4.873   5.277
  889SOL    HW214699   8.738   4.732   5.319
  890SOL     OW14700   0.398   5.039   0.571
  890SOL    HW114701   0.350   5.037   0.659
  890SOL    HW214702   0.352   4.979   0.507
  891SOL     OW14703   9.274   7.474   6.209
  891SOL    HW114704   9.351   7.417   6.238
  891SOL    HW214705   9.222   7.504   6.289
  892SOL     OW14706   6.928   7.587   1.136
  892SOL    HW114707   6.930   7.498   1.183
  892SOL    HW214708   6.903   7.573   1.040
  893SOL     OW14709   9.387   6.715   4.742
  893SOL    HW114710   9.389   6.812   4.766
  893SOL    HW214711   9.413   6.704   4.646
  894SOL     OW14712   1.782   2.378   0.691
  894SOL    HW114713   1.880   2.394   0.702
  894SOL    HW214714   1.737   2.385   0.780
  895SOL     OW14715   6.093   1.127   1.045
  895SOL    HW114716   6.169   1.102   0.985
  895SOL    HW214717   6.130   1.167   1.129
  896SOL     OW14718   8.821   1.170   6.522
  896SOL    HW114719   8.767   1.108   6.579
  896SOL    HW214720   8.917   1.166   6.550
  897SOL     OW14721   6.195   4.598   6.512
  897SOL    HW114722   6.258   4.609   6.435
  897SOL    HW214723   6.176   4.687   6.552
  898SOL     OW14724   4.421   7.622   5.343
  898SOL    HW114725   4.338   7.677   5.330
  898SOL    HW214726   4.396   7.526   5.351
  899SOL     OW14727   4.297   4.744   1.878
  899SOL    HW114728   4.217   4.801   1.857
  899SOL    HW214729   4.331   4.767   1.969
  900SOL     OW14730   0.631   7.951   5.732
  900SOL    HW114731   0.593   7.880   5.792
  900SOL    HW214732   0.560   7.981   5.668
  901SOL     OW14733   2.922   3.111   1.340
  901SOL    HW114734   2.887   3.125   1.432
  901SOL    HW214735   2.865   3.044   1.292
  902SOL     OW14736   4.875   0.002   6.061
  902SOL    HW114737   4.871  -0.071   6.129
  902SOL    HW214738   4.892   0.089   6.106
  903SOL     OW14739   1.103   1.894   1.803
  903SOL    HW114740   1.091   1.971   1.866
  903SOL    HW214741   1.014   1.869   1.764
  904SOL     OW14742   5.217   7.297   0.734
  904SOL    HW114743   5.154   7.262   0.802
  904SOL    HW214744   5.279   7.224   0.704
  905SOL     OW14745   4.510   7.378   0.536
  905SOL    HW114746   4.561   7.338   0.460
  905SOL    HW214747   4.545   7.469   0.556
  906SOL     OW14748   8.128   5.683   0.297
  906SOL    HW114749   8.197   5.751   0.322
  906SOL    HW214750   8.047   5.730   0.261
  907SOL     OW14751   5.490  -0.026   1.750
  907SOL    HW114752   5.399  -0.006   1.788
  907SOL    HW214753   5.536   0.060   1.729
  908SOL     OW14754   2.585   3.803   5.808
  908SOL    HW114755   2.668   3.851   5.779
  908SOL    HW214756   2.533   3.774   5.727
  909SOL     OW14757   0.410   0.798   1.110
  909SOL    HW114758   0.430   0.749   1.195
  909SOL    HW214759   0.485   0.785   1.045
  910SOL     OW14760   1.668   1.344   6.450
  910SOL    HW114761   1.763   1.317   6.434
  910SOL    HW214762   1.659   1.443   6.440
  911SOL     OW14763   3.884   0.976   5.507
  911SOL    HW114764   3.823   1.026   5.446
  911SOL    HW214765   3.895   1.027   5.593
  912SOL     OW14766   4.781   1.475   6.844
  912SOL    HW114767   4.735   1.390   6.869
  912SOL    HW214768   4.832   1.509   6.923
  913SOL     OW14769   7.246   1.917   1.201
  913SOL    HW114770   7.223   1.960   1.288
  913SOL    HW214771   7.239   1.984   1.127
  914SOL     OW14772   2.156   0.935   6.180
  914SOL    HW114773   2.221   1.011   6.170
  914SOL    HW214774   2.140   0.917   6.277
  915SOL     OW14775   5.787   1.042   5.786
  915SOL    HW114776   5.707   0.982   5.791
  915SOL    HW214777   5.762   1.127   5.740
  916SOL     OW14778   8.513   1.604   0.836
  916SOL    HW114779   8.497   1.671   0.763
  916SOL    HW214780   8.601   1.560   0.820
  917SOL     OW14781   4.448   2.492   6.677
  917SOL    HW114782   4.358   2.483   6.635
  917SOL    HW214783   4.507   2.548   6.618
  918SOL     OW14784   5.605   0.198   0.587
  918SOL    HW114785   5.545   0.278   0.599
  918SOL    HW214786   5.555   0.115   0.613
  919SOL     OW14787   1.506   7.413   5.862
  919SOL    HW114788   1.451   7.414   5.945
  919SOL    HW214789   1.476   7.488   5.801
  920SOL     OW14790   0.177   2.196   1.248
  920SOL    HW114791   0.222   2.118   1.291
  920SOL    HW214792   0.225   2.221   1.164
  921SOL     OW14793   2.167   5.668   5.507
  921SOL    HW114794   2.137   5.599   5.440
  921SOL    HW214795   2.201   5.748   5.458
  922SOL     OW14796   6.802   1.659   0.906
  922SOL    HW114797   6.813   1.641   1.004
  922SOL    HW214798   6.825   1.576   0.855
  923SOL     OW14799   0.252   8.419   4.744
  923SOL    HW114800   0.296   8.330   4.733
  923SOL    HW214801   0.218   8.450   4.656
  924SOL     OW14802   6.689   5.826   6.176
  924SOL    HW114803   6.591   5.836   6.193
  924SOL    HW214804   6.703   5.786   6.085
  925SOL     OW14805   3.024   2.648   0.826
  925SOL    HW114806   3.102   2.638   0.763
  925SOL    HW214807   2.962   2.718   0.790
  926SOL     OW14808   4.303   1.457   1.346
  926SOL    HW114809   4.371   1.427   1.413
  926SOL    HW214810   4.320   1.411   1.259
  927SOL     OW14811   4.622   7.890   1.757
  927SOL    HW114812   4.648   7.972   1.809
  927SOL    HW214813   4.694   7.868   1.692
  928SOL     OW14814   1.456   6.325   6.178
  928SOL    HW114815   1.379   6.389   6.183
  928SOL    HW214816   1.491   6.308   6.270
  929SOL     OW14817   1.049   0.257   5.602
  929SOL    HW114818   1.061   0.262   5.701
  929SOL    HW214819   0.975   0.318   5.574
  930SOL     OW14820   6.531   5.427   5.879
  930SOL    HW114821   6.628   5.409   5.859
  930SOL    HW214822   6.480   5.431   5.793
  931SOL     OW14823   4.447   7.190   1.829
  931SOL    HW114824   4.383   7.137   1.774
  931SOL    HW214825   4.448   7.155   1.923
  932SOL     OW14826   0.468   4.797   1.252
  932SOL    HW114827   0.543   4.797   1.185
  932SOL    HW214828   0.497   4.845   1.334
  933SOL     OW14829   4.760   7.743   5.869
  933SOL    HW114830   4.841   7.801   5.879
  933SOL    HW214831   4.760   7.703   5.777
  934SOL     OW14832   7.116   6.270   1.771
  934SOL    HW114833   7.172   6.236   1.847
  934SOL    HW214834   7.050   6.200   1.744
  935SOL     OW14835   0.834   7.905   5.050
  935SOL    HW114836   0.887   7.989   5.041
  935SOL    HW214837   0.739   7.929   5.071
  936SOL     OW14838   7.336   1.553   1.198
  936SOL    HW114839   7.284   1.538   1.282
  936SOL    HW214840   7.277   1.597   1.130
  937SOL     OW14841   6.017   2.091   1.413
  937SOL    HW114842   5.920   2.110   1.393
  937SOL    HW214843   6.050   2.158   1.480
  938SOL     OW14844   0.435   3.523   5.701
  938SOL    HW114845   0.359   3.492   5.644
  938SOL    HW214846   0.416   3.615   5.736
  939SOL     OW14847   1.073   5.539   5.619
  939SOL    HW114848   1.069   5.547   5.718
  939SOL    HW214849   1.091   5.444   5.594
  940SOL     OW14850   4.036   6.472   0.972
  940SOL    HW114851   3.957   6.416   0.996
  940SOL    HW214852   4.103   6.469   1.045
  941SOL     OW14853   4.426   6.017   1.681
  941SOL    HW114854   4.463   5.941   1.627
  941SOL    HW214855   4.496   6.051   1.743
  942SOL     OW14856   3.753   1.846   5.678
  942SOL    HW114857   3.677   1.818   5.620
  942SOL    HW214858   3.839   1.809   5.643
  943SOL     OW14859   1.479   3.793   0.494
  943SOL    HW114860   1.523   3.821   0.579
  943SOL    HW214861   1.531   3.719   0.452
  944SOL     OW14862   5.240   0.834   1.246
  944SOL    HW114863   5.258   0.788   1.160
  944SOL    HW214864   5.157   0.795   1.288
  945SOL     OW14865   0.496   1.527   6.402
  945SOL    HW114866   0.527   1.540   6.308
  945SOL    HW214867   0.494   1.429   6.423
  946SOL     OW14868   5.415   3.353   1.216
  946SOL    HW114869   5.395   3.288   1.290
  946SOL    HW214870   5.493   3.409   1.242
  947SOL     OW14871   0.950   0.050   0.956
  947SOL    HW114872   0.979   0.005   0.872
  947SOL    HW214873   0.853   0.033   0.972
  948SOL     OW14874   1.344   8.292   6.946
  948SOL    HW114875   1.279   8.272   7.019
  948SOL    HW214876   1.318   8.242   6.863
  949SOL     OW14877   3.432   4.814   0.666
  949SOL    HW114878   3.459   4.907   0.691
  949SOL    HW214879   3.452   4.752   0.741
  950SOL     OW14880   2.656   5.194   0.295
  950SOL    HW114881   2.664   5.287   0.331
  950SOL    HW214882   2.689   5.192   0.201
  951SOL     OW14883   5.729   4.228   6.749
  951SOL    HW114884   5.762   4.311   6.795
  951SOL    HW214885   5.714   4.248   6.652
  952SOL     OW14886   5.985   5.962   4.982
  952SOL    HW114887   6.047   5.888   5.008
  952SOL    HW214888   6.020   6.008   4.901
  953SOL     OW14889   5.083   8.252   1.242
  953SOL    HW114890   5.059   8.219   1.334
  953SOL    HW214891   5.086   8.175   1.179
  954SOL     OW14892   4.109   7.746   0.994
  954SOL    HW114893   4.096   7.837   0.954
  954SOL    HW214894   4.029   7.690   0.977
  955SOL     OW14895   4.397   2.801   1.261
  955SOL    HW114896   4.434   2.731   1.322
  955SOL    HW214897   4.339   2.758   1.192
  956SOL     OW14898   9.094   6.923   6.630
  956SOL    HW114899   9.011   6.947   6.681
  956SOL    HW214900   9.113   6.995   6.563
  957SOL     OW14901   4.013   4.061   0.559
  957SOL    HW114902   3.924   4.074   0.517
  957SOL    HW214903   4.079   4.126   0.520
  958SOL     OW14904   6.368   2.482   5.841
  958SOL    HW114905   6.407   2.422   5.772
  958SOL    HW214906   6.305   2.429   5.898
  959SOL     OW14907   1.122   7.551   1.379
  959SOL    HW114908   1.113   7.603   1.464
  959SOL    HW214909   1.131   7.453   1.400
  960SOL     OW14910   2.770   0.145   0.928
  960SOL    HW114911   2.679   0.154   0.969
  960SOL    HW214912   2.839   0.155   1.000
  961SOL     OW14913   5.382   8.150   1.370
  961SOL    HW114914   5.295   8.104   1.389
  961SOL    HW214915   5.376   8.196   1.282
  962SOL     OW14916   5.826   7.946   1.936
  962SOL    HW114917   5.805   8.013   1.865
  962SOL    HW214918   5.766   7.960   2.014
  963SOL     OW14919   6.576   6.255   0.817
  963SOL    HW114920   6.551   6.186   0.885
  963SOL    HW214921   6.654   6.308   0.851
  964SOL     OW14922   8.166   5.102   0.664
  964SOL    HW114923   8.099   5.062   0.727
  964SOL    HW214924   8.249   5.125   0.714
  965SOL     OW14925   0.284   5.227   1.672
  965SOL    HW114926   0.228   5.306   1.647
  965SOL    HW214927   0.292   5.223   1.772
  966SOL     OW14928   5.738   4.280   0.987
  966SOL    HW114929   5.668   4.276   0.915
  966SOL    HW214930   5.803   4.205   0.974
  967SOL     OW14931   2.651   0.076   0.293
  967SOL    HW114932   2.632   0.158   0.346
  967SOL    HW214933   2.585   0.004   0.316
  968SOL     OW14934   6.105   6.389   0.323
  968SOL    HW114935   6.141   6.375   0.416
  968SOL    HW214936   6.165   6.344   0.257
  969SOL     OW14937   4.263   3.586   0.985
  969SOL    HW114938   4.168   3.615   0.994
  969SOL    HW214939   4.319   3.634   1.053
  970SOL     OW14940   0.360   8.139   1.338
  970SOL    HW114941   0.335   8.090   1.422
  970SOL    HW214942   0.357   8.238   1.356
  971SOL     OW14943   6.256   0.031   6.004
  971SOL    HW114944   6.198  -0.008   5.932
  971SOL    HW214945   6.308  -0.043   6.048
  972SOL     OW14946   9.197   2.808   6.711
  972SOL    HW114947   9.173   2.900   6.743
  972SOL    HW214948   9.117   2.749   6.717
  973SOL     OW14949   4.491   4.236   0.970
  973SOL    HW114950   4.583   4.208   0.942
  973SOL    HW214951   4.425   4.211   0.899
  974SOL     OW14952   1.500   0.187   6.443
  974SOL    HW114953   1.484   0.122   6.369
  974SOL    HW214954   1.559   0.145   6.512
  975SOL     OW14955   7.105   0.124   5.833
  975SOL    HW114956   7.057   0.090   5.751
  975SOL    HW214957   7.086   0.221   5.844
  976SOL     OW14958   1.365   7.749   1.304
  976SOL    HW114959   1.366   7.649   1.294
  976SOL    HW214960   1.458   7.782   1.318
  977SOL     OW14961   7.569   2.358   6.132
  977SOL    HW114962   7.601   2.357   6.037
  977SOL    HW214963   7.648   2.369   6.194
  978SOL     OW14964   0.844   4.742   5.119
  978SOL    HW114965   0.855   4.647   5.148
  978SOL    HW214966   0.926   4.772   5.069
  979SOL     OW14967   3.495   7.489   2.355
  979SOL    HW114968   3.576   7.433   2.376
  979SOL    HW214969   3.514   7.584   2.378
  980SOL     OW14970   6.351   0.943   6.514
  980SOL    HW114971   6.388   1.018   6.459
  980SOL    HW214972   6.290   0.888   6.458
  981SOL     OW14973   5.317   3.781   1.412
  981SOL    HW114974   5.325   3.848   1.486
  981SOL    HW214975   5.287   3.826   1.328
  982SOL     OW14976   8.708   3.103   6.667
  982SOL    HW114977   8.629   3.146   6.624
  982SOL    HW214978   8.686   3.008   6.690
  983SOL     OW14979   4.075   7.952   6.241
  983SOL    HW114980   4.109   7.878   6.299
  983SOL    HW214981   3.976   7.944   6.229
  984SOL     OW14982   0.835   7.505   5.516
  984SOL    HW114983   0.926   7.486   5.554
  984SOL    HW214984   0.765   7.477   5.581
  985SOL     OW14985   3.858   0.365   0.557
  985SOL    HW114986   3.925   0.331   0.623
  985SOL    HW214987   3.895   0.446   0.510
  986SOL     OW14988   0.883   8.166   1.422
  986SOL    HW114989   0.845   8.212   1.342
  986SOL    HW214990   0.933   8.232   1.478
  987SOL     OW14991   0.337   3.470   0.947
  987SOL    HW114992   0.240   3.445   0.947
  987SOL    HW214993   0.382   3.429   1.026
  988SOL     OW14994   1.570   6.078   6.815
  988SOL    HW114995   1.514   6.161   6.814
  988SOL    HW214996   1.620   6.070   6.729
  989SOL     OW14997   6.861   6.550   6.815
  989SOL    HW114998   6.899   6.567   6.724
  989SOL    HW214999   6.764   6.576   6.817
  990SOL     OW15000   7.521   6.733   1.027
  990SOL    HW115001   7.457   6.800   1.064
  990SOL    HW215002   7.558   6.765   0.940
  991SOL     OW15003   5.429   0.105   1.350
  991SOL    HW115004   5.413   0.132   1.444
  991SOL    HW215005   5.502   0.037   1.346
  992SOL     OW15006   4.992   7.282   5.922
  992SOL    HW115007   5.019   7.323   5.835
  992SOL    HW215008   4.912   7.224   5.908
  993SOL     OW15009   6.472   3.016   0.459
  993SOL    HW115010   6.426   3.098   0.493
  993SOL    HW215011   6.511   3.034   0.369
  994SOL     OW15012   3.316   2.361   0.964
  994SOL    HW115013   3.232   2.407   0.993
  994SOL    HW215014   3.301   2.317   0.875
  995SOL     OW15015   3.966   5.616   1.428
  995SOL    HW115016   4.020   5.542   1.468
  995SOL    HW215017   3.972   5.611   1.328
  996SOL     OW15018   4.483   0.783   6.748
  996SOL    HW115019   4.493   0.779   6.847
  996SOL    HW215020   4.431   0.865   6.723
  997SOL     OW15021   1.296   5.956   5.212
  997SOL    HW115022   1.254   5.939   5.123
  997SOL    HW215023   1.282   6.051   5.239
  998SOL     OW15024   6.992   1.751   1.795
  998SOL    HW115025   6.892   1.758   1.791
  998SOL    HW215026   7.031   1.793   1.714
  999SOL     OW15027   1.187   5.358   6.653
  999SOL    HW115028   1.187   5.405   6.565
  999SOL    HW215029   1.275   5.374   6.699
 1000SOL     OW15030   3.750   1.436   0.931
 1000SOL    HW115031   3.817   1.497   0.888
 1000SOL    HW215032   3.692   1.489   0.993
 1001SOL     OW15033   8.662   7.864   1.535
 1001SOL    HW115034   8.565   7.889   1.530
 1001SOL    HW215035   8.674   7.773   1.494
 1002SOL     OW15036   2.952   6.672   6.066
 1002SOL    HW115037   2.918   6.763   6.045
 1002SOL    HW215038   3.049   6.678   6.091
 1003SOL     OW15039   8.273   2.809   1.495
 1003SOL    HW115040   8.178   2.829   1.516
 1003SOL    HW215041   8.300   2.723   1.539
 1004SOL     OW15042   4.404   8.429   5.373
 1004SOL    HW115043   4.308   8.421   5.399
 1004SOL    HW215044   4.414   8.403   5.277
 1005SOL     OW15045   5.092   4.675   1.752
 1005SOL    HW115046   5.085   4.580   1.783
 1005SOL    HW215047   5.041   4.734   1.814
 1006SOL     OW15048   3.769   4.560   0.973
 1006SOL    HW115049   3.729   4.470   0.990
 1006SOL    HW215050   3.829   4.585   1.049
 1007SOL     OW15051   1.962   1.089   6.084
 1007SOL    HW115052   1.915   1.049   6.005
 1007SOL    HW215053   2.027   1.023   6.121
 1008SOL     OW15054   8.911   7.443   0.708
 1008SOL    HW115055   8.949   7.375   0.645
 1008SOL    HW215056   8.843   7.399   0.767
 1009SOL     OW15057   5.720   1.369   1.253
 1009SOL    HW115058   5.758   1.277   1.251
 1009SOL    HW215059   5.642   1.371   1.315
 1010SOL     OW15060   7.183   6.150   6.135
 1010SOL    HW115061   7.251   6.131   6.064
 1010SOL    HW215062   7.193   6.083   6.209
 1011SOL     OW15063   5.083   7.161   6.172
 1011SOL    HW115064   5.083   7.198   6.079
 1011SOL    HW215065   5.146   7.084   6.177
 1012SOL     OW15066   2.613   0.593   5.654
 1012SOL    HW115067   2.519   0.616   5.676
 1012SOL    HW215068   2.619   0.498   5.624
 1013SOL     OW15069   0.894   7.023   1.264
 1013SOL    HW115070   0.952   7.022   1.346
 1013SOL    HW215071   0.861   7.117   1.249
 1014SOL     OW15072   8.607   0.739   1.218
 1014SOL    HW115073   8.661   0.677   1.275
 1014SOL    HW215074   8.666   0.781   1.149
 1015SOL     OW15075   6.377   1.973   6.643
 1015SOL    HW115076   6.427   2.040   6.588
 1015SOL    HW215077   6.361   2.010   6.735
 1016SOL     OW15078   8.048   3.883   5.647
 1016SOL    HW115079   7.968   3.832   5.679
 1016SOL    HW215080   8.069   3.857   5.553
 1017SOL     OW15081   7.896   3.448   1.604
 1017SOL    HW115082   7.937   3.360   1.626
 1017SOL    HW215083   7.963   3.521   1.621
 1018SOL     OW15084   6.161   3.868   6.523
 1018SOL    HW115085   6.127   3.871   6.617
 1018SOL    HW215086   6.225   3.791   6.513
 1019SOL     OW15087   4.506   2.217   1.422
 1019SOL    HW115088   4.574   2.254   1.486
 1019SOL    HW215089   4.543   2.134   1.380
 1020SOL     OW15090   3.699   5.115   2.087
 1020SOL    HW115091   3.649   5.176   2.148
 1020SOL    HW215092   3.761   5.058   2.141
 1021SOL     OW15093   2.056   4.838   5.330
 1021SOL    HW115094   2.065   4.750   5.377
 1021SOL    HW215095   2.053   4.823   5.231
 1022SOL     OW15096   0.625   5.439   5.705
 1022SOL    HW115097   0.573   5.428   5.620
 1022SOL    HW215098   0.705   5.379   5.703
 1023SOL     OW15099   2.600   4.376   0.764
 1023SOL    HW115100   2.672   4.315   0.797
 1023SOL    HW215101   2.612   4.467   0.803
 1024SOL     OW15102   5.030   0.011   6.333
 1024SOL    HW115103   4.960  -0.048   6.374
 1024SOL    HW215104   4.997   0.105   6.331
 1025SOL     OW15105   6.868   5.453   6.245
 1025SOL    HW115106   6.908   5.426   6.157
 1025SOL    HW215107   6.788   5.510   6.229
 1026SOL     OW15108   4.303   4.293   1.155
 1026SOL    HW115109   4.322   4.364   1.223
 1026SOL    HW215110   4.386   4.275   1.103
 1027SOL     OW15111   6.465   4.483   0.692
 1027SOL    HW115112   6.537   4.546   0.665
 1027SOL    HW215113   6.504   4.393   0.709
 1028SOL     OW15114   0.216   5.451   1.062
 1028SOL    HW115115   0.196   5.472   1.158
 1028SOL    HW215116   0.218   5.535   1.009
 1029SOL     OW15117   1.002   3.266   1.130
 1029SOL    HW115118   0.947   3.273   1.047
 1029SOL    HW215119   0.943   3.281   1.210
 1030SOL     OW15120   4.790   2.938   6.973
 1030SOL    HW115121   4.809   2.965   6.878
 1030SOL    HW215122   4.781   3.020   7.030
 1031SOL     OW15123   8.281   8.010   6.323
 1031SOL    HW115124   8.195   8.010   6.375
 1031SOL    HW215125   8.275   7.942   6.249
 1032SOL     OW15126   0.490   7.968   6.920
 1032SOL    HW115127   0.406   7.939   6.966
 1032SOL    HW215128   0.476   7.968   6.821
 1033SOL     OW15129   3.220   0.740   6.931
 1033SOL    HW115130   3.301   0.762   6.985
 1033SOL    HW215131   3.144   0.799   6.959
 1034SOL     OW15132   6.949  -0.026   6.015
 1034SOL    HW115133   7.027   0.035   6.000
 1034SOL    HW215134   6.981  -0.120   6.023
 1035SOL     OW15135   9.531   5.678   0.461
 1035SOL    HW115136   9.477   5.697   0.543
 1035SOL    HW215137   9.539   5.580   0.448
 1036SOL     OW15138   0.759   1.302   0.839
 1036SOL    HW115139   0.734   1.351   0.922
 1036SOL    HW215140   0.738   1.359   0.759
 1037SOL     OW15141   6.760   0.515   0.278
 1037SOL    HW115142   6.799   0.461   0.353
 1037SOL    HW215143   6.784   0.473   0.191
 1038SOL     OW15144   0.185   6.467   5.067
 1038SOL    HW115145   0.098   6.451   5.020
 1038SOL    HW215146   0.260   6.465   5.000
 1039SOL     OW15147   3.696   6.829   5.812
 1039SOL    HW115148   3.666   6.771   5.888
 1039SOL    HW215149   3.617   6.856   5.758
 1040SOL     OW15150   2.010   4.941   5.793
 1040SOL    HW115151   1.995   4.967   5.698
 1040SOL    HW215152   2.044   4.847   5.797
 1041SOL     OW15153   6.009   1.791   1.104
 1041SOL    HW115154   5.974   1.699   1.121
 1041SOL    HW215155   6.055   1.825   1.186
 1042SOL     OW15156   5.192   3.546   1.340
 1042SOL    HW115157   5.217   3.626   1.395
 1042SOL    HW215158   5.242   3.548   1.253
 1043SOL     OW15159   9.241   4.281   0.691
 1043SOL    HW115160   9.270   4.347   0.622
 1043SOL    HW215161   9.262   4.189   0.660
 1044SOL     OW15162   2.106   4.765   0.420
 1044SOL    HW115163   2.097   4.726   0.329
 1044SOL    HW215164   2.191   4.732   0.462
 1045SOL     OW15165   3.341   2.419   2.836
 1045SOL    HW115166   3.364   2.477   2.758
 1045SOL    HW215167   3.394   2.449   2.916
 1046SOL     OW15168   6.412   5.898   6.290
 1046SOL    HW115169   6.373   5.819   6.339
 1046SOL    HW215170   6.350   5.924   6.216
 1047SOL     OW15171   2.366   3.906   6.688
 1047SOL    HW115172   2.315   3.872   6.767
 1047SOL    HW215173   2.394   4.001   6.704
 1048SOL     OW15174   8.800   3.390   6.440
 1048SOL    HW115175   8.771   3.474   6.395
 1048SOL    HW215176   8.772   3.392   6.536
 1049SOL     OW15177   9.220   6.018   6.314
 1049SOL    HW115178   9.210   5.925   6.278
 1049SOL    HW215179   9.284   6.017   6.391
 1050SOL     OW15180   6.187   6.031   6.145
 1050SOL    HW115181   6.114   5.983   6.097
 1050SOL    HW215182   6.165   6.037   6.242
 1051SOL     OW15183   9.484   7.938   1.170
 1051SOL    HW115184   9.447   7.923   1.079
 1051SOL    HW215185   9.483   8.036   1.191
 1052SOL     OW15186   8.694   6.238   1.060
 1052SOL    HW115187   8.661   6.154   1.017
 1052SOL    HW215188   8.754   6.214   1.137
 1053SOL     OW15189   9.495   2.439   0.957
 1053SOL    HW115190   9.595   2.431   0.957
 1053SOL    HW215191   9.469   2.534   0.941
 1054SOL     OW15192   4.778   4.809   5.491
 1054SOL    HW115193   4.861   4.852   5.527
 1054SOL    HW215194   4.728   4.876   5.437
 1055SOL     OW15195   1.298   7.486   6.127
 1055SOL    HW115196   1.217   7.542   6.110
 1055SOL    HW215197   1.306   7.466   6.224
 1056SOL     OW15198   4.333   1.499   6.085
 1056SOL    HW115199   4.279   1.417   6.066
 1056SOL    HW215200   4.396   1.516   6.009
 1057SOL     OW15201   1.655   8.403   5.111
 1057SOL    HW115202   1.745   8.415   5.071
 1057SOL    HW215203   1.603   8.337   5.056
 1058SOL     OW15204   3.066   1.924   1.960
 1058SOL    HW115205   3.044   1.900   1.865
 1058SOL    HW215206   3.135   1.997   1.961
 1059SOL     OW15207   6.942   0.845   0.807
 1059SOL    HW115208   6.912   0.754   0.780
 1059SOL    HW215209   6.955   0.901   0.725
 1060SOL     OW15210   9.423   5.229   5.987
 1060SOL    HW115211   9.431   5.327   6.006
 1060SOL    HW215212   9.410   5.180   6.073
 1061SOL     OW15213   7.824   3.566   6.632
 1061SOL    HW115214   7.784   3.486   6.677
 1061SOL    HW215215   7.888   3.537   6.562
 1062SOL     OW15216   6.727   1.465   0.392
 1062SOL    HW115217   6.668   1.423   0.462
 1062SOL    HW215218   6.769   1.394   0.336
 1063SOL     OW15219   4.513   7.765   5.982
 1063SOL    HW115220   4.598   7.755   5.931
 1063SOL    HW215221   4.464   7.678   5.981
 1064SOL     OW15222   2.592   5.332   6.105
 1064SOL    HW115223   2.562   5.417   6.149
 1064SOL    HW215224   2.688   5.341   6.079
 1065SOL     OW15225   0.864   5.624   6.453
 1065SOL    HW115226   0.962   5.637   6.441
 1065SOL    HW215227   0.848   5.555   6.524
 1066SOL     OW15228   3.147   1.657   2.007
 1066SOL    HW115229   3.121   1.753   1.998
 1066SOL    HW215230   3.234   1.641   1.960
 1067SOL     OW15231   7.182   1.026   0.375
 1067SOL    HW115232   7.237   1.106   0.399
 1067SOL    HW215233   7.241   0.958   0.330
 1068SOL     OW15234   9.524   5.632   0.742
 1068SOL    HW115235   9.511   5.534   0.758
 1068SOL    HW215236   9.450   5.683   0.784
 1069SOL     OW15237   0.751   6.213   5.263
 1069SOL    HW115238   0.808   6.197   5.343
 1069SOL    HW215239   0.803   6.194   5.180
 1070SOL     OW15240   2.521   4.325   1.450
 1070SOL    HW115241   2.605   4.351   1.401
 1070SOL    HW215242   2.542   4.255   1.518
 1071SOL     OW15243   9.026   5.194   6.923
 1071SOL    HW115244   9.003   5.234   6.834
 1071SOL    HW215245   8.957   5.219   6.990
 1072SOL     OW15246   4.848   6.032   6.390
 1072SOL    HW115247   4.882   6.018   6.297
 1072SOL    HW215248   4.821   5.945   6.430
 1073SOL     OW15249   5.750   7.478   0.354
 1073SOL    HW115250   5.697   7.462   0.270
 1073SOL    HW215251   5.688   7.475   0.433
 1074SOL     OW15252   0.630  -0.055   0.648
 1074SOL    HW115253   0.724  -0.065   0.681
 1074SOL    HW215254   0.575  -0.131   0.681
 1075SOL     OW15255   1.297   2.933   6.016
 1075SOL    HW115256   1.356   2.960   5.940
 1075SOL    HW215257   1.232   3.007   6.035
 1076SOL     OW15258   8.853   7.450   6.290
 1076SOL    HW115259   8.843   7.444   6.390
 1076SOL    HW215260   8.906   7.531   6.267
 1077SOL     OW15261   1.640   6.585   5.790
 1077SOL    HW115262   1.603   6.667   5.746
 1077SOL    HW215263   1.633   6.595   5.889
 1078SOL     OW15264   1.054   7.111   6.590
 1078SOL    HW115265   0.964   7.087   6.626
 1078SOL    HW215266   1.063   7.075   6.497
 1079SOL     OW15267   4.671   5.446   0.700
 1079SOL    HW115268   4.690   5.537   0.738
 1079SOL    HW215269   4.734   5.380   0.741
 1080SOL     OW15270   2.107   5.977   6.318
 1080SOL    HW115271   2.022   5.982   6.266
 1080SOL    HW215272   2.128   6.067   6.357
 1081SOL     OW15273   6.147   1.818   6.082
 1081SOL    HW115274   6.148   1.827   5.982
 1081SOL    HW215275   6.228   1.863   6.119
 1082SOL     OW15276   0.472   0.298   6.782
 1082SOL    HW115277   0.540   0.337   6.720
 1082SOL    HW215278   0.515   0.275   6.869
 1083SOL     OW15279   4.479   2.864   6.659
 1083SOL    HW115280   4.461   2.809   6.740
 1083SOL    HW215281   4.509   2.804   6.584
 1084SOL     OW15282   7.400   7.042   6.679
 1084SOL    HW115283   7.415   6.944   6.696
 1084SOL    HW215284   7.301   7.060   6.677
 1085SOL     OW15285   1.550   7.716   6.561
 1085SOL    HW115286   1.497   7.637   6.530
 1085SOL    HW215287   1.596   7.759   6.483
 1086SOL     OW15288   5.523   8.311   6.822
 1086SOL    HW115289   5.548   8.365   6.903
 1086SOL    HW215290   5.522   8.371   6.742
 1087SOL     OW15291   6.668   4.405   6.121
 1087SOL    HW115292   6.753   4.360   6.149
 1087SOL    HW215293   6.681   4.504   6.119
 1088SOL     OW15294   0.618   6.907   5.970
 1088SOL    HW115295   0.627   6.846   5.891
 1088SOL    HW215296   0.679   6.874   6.043
 1089SOL     OW15297   0.640   7.652   0.500
 1089SOL    HW115298   0.739   7.643   0.488
 1089SOL    HW215299   0.613   7.747   0.485
 1090SOL     OW15300   8.733   7.760   0.540
 1090SOL    HW115301   8.695   7.669   0.560
 1090SOL    HW215302   8.832   7.757   0.546
 1091SOL     OW15303   8.427   6.991   1.902
 1091SOL    HW115304   8.339   7.036   1.884
 1091SOL    HW215305   8.459   7.017   1.993
 1092SOL     OW15306   4.731   6.089   1.594
 1092SOL    HW115307   4.695   6.031   1.520
 1092SOL    HW215308   4.716   6.185   1.570
 1093SOL     OW15309   2.581   0.772   6.374
 1093SOL    HW115310   2.579   0.672   6.375
 1093SOL    HW215311   2.649   0.805   6.439
 1094SOL     OW15312   4.056   0.410   6.915
 1094SOL    HW115313   4.072   0.334   6.978
 1094SOL    HW215314   4.138   0.424   6.859
 1095SOL     OW15315   2.309   4.329   1.279
 1095SOL    HW115316   2.233   4.320   1.343
 1095SOL    HW215317   2.395   4.332   1.329
 1096SOL     OW15318   4.003   7.805   0.658
 1096SOL    HW115319   4.038   7.730   0.713
 1096SOL    HW215320   3.922   7.844   0.702
 1097SOL     OW15321   6.203   1.931   0.730
 1097SOL    HW115322   6.145   1.923   0.649
 1097SOL    HW215323   6.270   1.857   0.730
 1098SOL     OW15324   1.229   2.167   6.287
 1098SOL    HW115325   1.287   2.236   6.244
 1098SOL    HW215326   1.134   2.200   6.290
 1099SOL     OW15327   6.432   6.097   6.586
 1099SOL    HW115328   6.475   6.027   6.643
 1099SOL    HW215329   6.462   6.188   6.616
 1100SOL     OW15330   4.286   3.949   2.167
 1100SOL    HW115331   4.293   3.870   2.227
 1100SOL    HW215332   4.375   3.994   2.161
 1101SOL     OW15333   0.146   0.521   0.337
 1101SOL    HW115334   0.125   0.615   0.308
 1101SOL    HW215335   0.177   0.468   0.259
 1102SOL     OW15336   7.859   5.808   5.349
 1102SOL    HW115337   7.929   5.852   5.293
 1102SOL    HW215338   7.788   5.875   5.371
 1103SOL     OW15339   8.766   7.376   1.509
 1103SOL    HW115340   8.819   7.351   1.590
 1103SOL    HW215341   8.673   7.340   1.519
 1104SOL     OW15342   9.173   6.534   0.843
 1104SOL    HW115343   9.084   6.488   0.842
 1104SOL    HW215344   9.160   6.633   0.853
 1105SOL     OW15345   5.150   7.647   1.403
 1105SOL    HW115346   5.091   7.610   1.332
 1105SOL    HW215347   5.211   7.575   1.437
 1106SOL     OW15348   8.618   6.231   5.001
 1106SOL    HW115349   8.555   6.254   4.926
 1106SOL    HW215350   8.702   6.193   4.963
 1107SOL     OW15351   4.740   4.281   0.277
 1107SOL    HW115352   4.838   4.271   0.263
 1107SOL    HW215353   4.714   4.235   0.362
 1108SOL     OW15354   7.642   4.854   1.459
 1108SOL    HW115355   7.697   4.803   1.525
 1108SOL    HW215356   7.703   4.907   1.399
 1109SOL     OW15357   5.836   5.415   0.933
 1109SOL    HW115358   5.750   5.438   0.978
 1109SOL    HW215359   5.871   5.329   0.971
 1110SOL     OW15360   2.693   5.227   5.819
 1110SOL    HW115361   2.789   5.202   5.807
 1110SOL    HW215362   2.661   5.194   5.908
 1111SOL     OW15363   0.187   6.797   4.198
 1111SOL    HW115364   0.148   6.749   4.119
 1111SOL    HW215365   0.117   6.853   4.242
 1112SOL     OW15366   2.433   8.320   1.259
 1112SOL    HW115367   2.394   8.243   1.309
 1112SOL    HW215368   2.512   8.288   1.205
 1113SOL     OW15369   6.813   1.049   1.440
 1113SOL    HW115370   6.836   0.957   1.471
 1113SOL    HW215371   6.887   1.112   1.462
 1114SOL     OW15372   7.819   3.114   1.356
 1114SOL    HW115373   7.893   3.078   1.301
 1114SOL    HW215374   7.822   3.073   1.448
 1115SOL     OW15375   4.634   1.196   6.404
 1115SOL    HW115376   4.656   1.200   6.501
 1115SOL    HW215377   4.718   1.177   6.352
 1116SOL     OW15378   6.880   6.940   6.454
 1116SOL    HW115379   6.864   6.854   6.405
 1116SOL    HW215380   6.921   7.007   6.391
 1117SOL     OW15381   6.926   2.722   6.716
 1117SOL    HW115382   6.992   2.767   6.776
 1117SOL    HW215383   6.919   2.626   6.741
 1118SOL     OW15384   9.108   6.573   0.500
 1118SOL    HW115385   9.061   6.619   0.425
 1118SOL    HW215386   9.205   6.565   0.480
 1119SOL     OW15387   4.281   6.990   1.691
 1119SOL    HW115388   4.337   6.907   1.688
 1119SOL    HW215389   4.225   6.996   1.608
 1120SOL     OW15390   2.959   0.941   1.193
 1120SOL    HW115391   2.920   0.902   1.110
 1120SOL    HW215392   2.894   1.005   1.234
 1121SOL     OW15393   3.859   3.161   6.203
 1121SOL    HW115394   3.776   3.107   6.188
 1121SOL    HW215395   3.934   3.124   6.149
 1122SOL     OW15396   5.524   4.369   6.076
 1122SOL    HW115397   5.484   4.278   6.064
 1122SOL    HW215398   5.540   4.410   5.987
 1123SOL     OW15399   5.700   6.170   1.572
 1123SOL    HW115400   5.637   6.185   1.497
 1123SOL    HW215401   5.786   6.133   1.536
 1124SOL     OW15402   4.899   0.872   1.462
 1124SOL    HW115403   4.817   0.815   1.470
 1124SOL    HW215404   4.976   0.814   1.434
 1125SOL     OW15405   0.197   8.138   6.949
 1125SOL    HW115406   0.119   8.107   7.003
 1125SOL    HW215407   0.270   8.168   7.010
 1126SOL     OW15408   4.616   0.189   6.228
 1126SOL    HW115409   4.630   0.211   6.131
 1126SOL    HW215410   4.572   0.099   6.235
 1127SOL     OW15411   9.290   4.651   5.709
 1127SOL    HW115412   9.295   4.613   5.616
 1127SOL    HW215413   9.382   4.673   5.740
 1128SOL     OW15414   4.776   1.534   2.172
 1128SOL    HW115415   4.816   1.623   2.193
 1128SOL    HW215416   4.848   1.466   2.164
 1129SOL     OW15417   0.691   7.647   5.826
 1129SOL    HW115418   0.701   7.564   5.772
 1129SOL    HW215419   0.606   7.642   5.879
 1130SOL     OW15420   0.222   0.231   0.926
 1130SOL    HW115421   0.283   0.240   1.005
 1130SOL    HW215422   0.277   0.228   0.843
 1131SOL     OW15423   8.596   0.981   5.494
 1131SOL    HW115424   8.648   0.896   5.503
 1131SOL    HW215425   8.553   0.984   5.404
 1132SOL     OW15426   6.878   4.968   5.889
 1132SOL    HW115427   6.900   4.896   5.823
 1132SOL    HW215428   6.918   5.054   5.859
 1133SOL     OW15429   1.269   1.249   6.042
 1133SOL    HW115430   1.201   1.233   6.114
 1133SOL    HW215431   1.355   1.204   6.067
 1134SOL     OW15432   3.026   0.620   1.861
 1134SOL    HW115433   3.016   0.643   1.958
 1134SOL    HW215434   3.116   0.579   1.846
 1135SOL     OW15435   5.264   5.010   6.132
 1135SOL    HW115436   5.238   5.071   6.058
 1135SOL    HW215437   5.364   5.003   6.137
 1136SOL     OW15438   1.336   3.210   0.555
 1136SOL    HW115439   1.369   3.128   0.507
 1136SOL    HW215440   1.412   3.253   0.604
 1137SOL     OW15441   2.489   1.589   6.727
 1137SOL    HW115442   2.415   1.582   6.660
 1137SOL    HW215443   2.526   1.682   6.728
 1138SOL     OW15444   9.013   5.163   5.625
 1138SOL    HW115445   8.949   5.172   5.548
 1138SOL    HW215446   8.962   5.172   5.711
 1139SOL     OW15447   1.865   6.249   0.636
 1139SOL    HW115448   1.936   6.287   0.696
 1139SOL    HW215449   1.908   6.202   0.560
 1140SOL     OW15450   5.710   0.429   5.103
 1140SOL    HW115451   5.772   0.479   5.042
 1140SOL    HW215452   5.644   0.378   5.048
 1141SOL     OW15453   8.757   7.640   1.196
 1141SOL    HW115454   8.735   7.632   1.293
 1141SOL    HW215455   8.674   7.660   1.144
 1142SOL     OW15456   2.985   0.676   6.452
 1142SOL    HW115457   2.940   0.613   6.390
 1142SOL    HW215458   2.917   0.737   6.494
 1143SOL     OW15459   9.303   8.302   5.743
 1143SOL    HW115460   9.272   8.228   5.682
 1143SOL    HW215461   9.231   8.321   5.811
 1144SOL     OW15462   8.456   2.332   6.495
 1144SOL    HW115463   8.495   2.250   6.453
 1144SOL    HW215464   8.377   2.307   6.551
 1145SOL     OW15465   0.731   1.303   1.473
 1145SOL    HW115466   0.668   1.253   1.531
 1145SOL    HW215467   0.680   1.358   1.407
 1146SOL     OW15468   6.186   5.777   1.031
 1146SOL    HW115469   6.273   5.731   1.047
 1146SOL    HW215470   6.204   5.868   0.993
 1147SOL     OW15471   6.356   0.076   0.491
 1147SOL    HW115472   6.279   0.113   0.543
 1147SOL    HW215473   6.438   0.130   0.510
 1148SOL     OW15474   7.687   0.860   6.309
 1148SOL    HW115475   7.703   0.905   6.220
 1148SOL    HW215476   7.600   0.811   6.306
 1149SOL     OW15477   0.124   1.596   1.101
 1149SOL    HW115478   0.216   1.606   1.141
 1149SOL    HW215479   0.120   1.645   1.014
 1150SOL     OW15480   3.954   2.620   1.137
 1150SOL    HW115481   3.927   2.546   1.199
 1150SOL    HW215482   3.889   2.626   1.061
 1151SOL     OW15483   4.818   5.772   6.537
 1151SOL    HW115484   4.885   5.766   6.611
 1151SOL    HW215485   4.733   5.730   6.567
 1152SOL     OW15486   4.164   8.231   1.550
 1152SOL    HW115487   4.195   8.253   1.642
 1152SOL    HW215488   4.093   8.295   1.522
 1153SOL     OW15489   8.550   1.761   5.931
 1153SOL    HW115490   8.560   1.697   5.854
 1153SOL    HW215491   8.459   1.803   5.928
 1154SOL     OW15492   8.405   0.406   5.765
 1154SOL    HW115493   8.478   0.456   5.811
 1154SOL    HW215494   8.413   0.419   5.666
 1155SOL     OW15495   8.178   4.543   6.005
 1155SOL    HW115496   8.193   4.466   5.944
 1155SOL    HW215497   8.253   4.550   6.070
 1156SOL     OW15498   1.928   5.507   5.848
 1156SOL    HW115499   1.895   5.416   5.873
 1156SOL    HW215500   1.919   5.521   5.750
 1157SOL     OW15501   4.472   2.094   1.959
 1157SOL    HW115502   4.516   2.022   2.013
 1157SOL    HW215503   4.541   2.145   1.909
 1158SOL     OW15504   3.710   1.969   2.473
 1158SOL    HW115505   3.671   1.885   2.434
 1158SOL    HW215506   3.748   1.949   2.564
 1159SOL     OW15507   1.406   0.184   5.621
 1159SOL    HW115508   1.361   0.095   5.614
 1159SOL    HW215509   1.345   0.247   5.669
 1160SOL     OW15510   3.399   7.570   1.283
 1160SOL    HW115511   3.491   7.532   1.278
 1160SOL    HW215512   3.349   7.548   1.200
 1161SOL     OW15513   2.092   7.561   0.722
 1161SOL    HW115514   2.123   7.472   0.688
 1161SOL    HW215515   2.101   7.629   0.650
 1162SOL     OW15516   4.881   1.292   1.237
 1162SOL    HW115517   4.957   1.352   1.215
 1162SOL    HW215518   4.885   1.266   1.334
 1163SOL     OW15519   7.882   0.698   6.454
 1163SOL    HW115520   7.808   0.744   6.405
 1163SOL    HW215521   7.910   0.616   6.403
 1164SOL     OW15522   1.875   4.965   1.434
 1164SOL    HW115523   1.857   5.006   1.345
 1164SOL    HW215524   1.863   4.866   1.428
 1165SOL     OW15525   6.075   2.240   1.643
 1165SOL    HW115526   6.138   2.301   1.691
 1165SOL    HW215527   5.986   2.284   1.633
 1166SOL     OW15528   9.231   0.556   0.369
 1166SOL    HW115529   9.280   0.631   0.413
 1166SOL    HW215530   9.295   0.484   0.343
 1167SOL     OW15531   0.709   5.889   6.142
 1167SOL    HW115532   0.655   5.971   6.162
 1167SOL    HW215533   0.649   5.810   6.132
 1168SOL     OW15534   6.331   1.995   1.034
 1168SOL    HW115535   6.231   2.000   1.027
 1168SOL    HW215536   6.371   2.018   0.945
 1169SOL     OW15537   2.546   1.769   0.334
 1169SOL    HW115538   2.623   1.831   0.347
 1169SOL    HW215539   2.577   1.674   0.342
 1170SOL     OW15540   4.503   3.271   6.235
 1170SOL    HW115541   4.511   3.315   6.146
 1170SOL    HW215542   4.438   3.322   6.292
 1171SOL     OW15543   5.983   6.202   6.686
 1171SOL    HW115544   6.033   6.288   6.685
 1171SOL    HW215545   5.961   6.174   6.593
 1172SOL     OW15546   6.303   7.412   1.202
 1172SOL    HW115547   6.211   7.372   1.200
 1172SOL    HW215548   6.343   7.407   1.111
 1173SOL     OW15549   8.417   4.507   6.108
 1173SOL    HW115550   8.462   4.579   6.162
 1173SOL    HW215551   8.487   4.455   6.059
 1174SOL     OW15552   1.628   3.540   6.209
 1174SOL    HW115553   1.585   3.588   6.132
 1174SOL    HW215554   1.726   3.556   6.207
 1175SOL     OW15555   2.583   0.234   1.851
 1175SOL    HW115556   2.636   0.156   1.818
 1175SOL    HW215557   2.519   0.204   1.922
 1176SOL     OW15558   4.166   7.283   6.702
 1176SOL    HW115559   4.109   7.348   6.653
 1176SOL    HW215560   4.193   7.208   6.641
 1177SOL     OW15561   1.400   6.272   6.810
 1177SOL    HW115562   1.331   6.329   6.765
 1177SOL    HW215563   1.396   6.286   6.909
 1178SOL     OW15564   7.088   6.006   5.621
 1178SOL    HW115565   7.152   6.006   5.543
 1178SOL    HW215566   7.007   5.952   5.598
 1179SOL     OW15567   7.476   7.784   6.294
 1179SOL    HW115568   7.518   7.873   6.275
 1179SOL    HW215569   7.434   7.748   6.211
 1180SOL     OW15570   4.662   1.210   5.819
 1180SOL    HW115571   4.642   1.289   5.762
 1180SOL    HW215572   4.580   1.154   5.830
 1181SOL     OW15573   2.317   0.312   2.254
 1181SOL    HW115574   2.249   0.326   2.326
 1181SOL    HW215575   2.320   0.393   2.195
 1182SOL     OW15576   6.464   1.986   1.288
 1182SOL    HW115577   6.408   1.984   1.206
 1182SOL    HW215578   6.497   2.080   1.304
 1183SOL     OW15579   8.408   6.419   1.870
 1183SOL    HW115580   8.325   6.372   1.902
 1183SOL    HW215581   8.473   6.424   1.945
 1184SOL     OW15582   5.994   3.473   6.501
 1184SOL    HW115583   6.085   3.434   6.494
 1184SOL    HW215584   5.938   3.440   6.425
 1185SOL     OW15585   3.010   3.922   6.343
 1185SOL    HW115586   3.089   3.928   6.282
 1185SOL    HW215587   2.964   4.011   6.347
 1186SOL     OW15588   6.400   4.342   1.582
 1186SOL    HW115589   6.316   4.298   1.612
 1186SOL    HW215590   6.458   4.360   1.662
 1187SOL     OW15591   5.465   0.010   6.634
 1187SOL    HW115592   5.481   0.102   6.669
 1187SOL    HW215593   5.417   0.014   6.547
 1188SOL     OW15594   5.845   0.130   1.582
 1188SOL    HW115595   5.878   0.038   1.602
 1188SOL    HW215596   5.912   0.178   1.526
 1189SOL     OW15597   0.389   7.276   0.283
 1189SOL    HW115598   0.436   7.187   0.279
 1189SOL    HW215599   0.375   7.310   0.190
 1190SOL     OW15600   3.953   6.533   6.122
 1190SOL    HW115601   3.931   6.572   6.212
 1190SOL    HW215602   4.046   6.558   6.097
 1191SOL     OW15603   2.578   7.243   5.997
 1191SOL    HW115604   2.506   7.261   6.064
 1191SOL    HW215605   2.588   7.322   5.936
 1192SOL     OW15606   8.183   3.928   6.593
 1192SOL    HW115607   8.235   3.891   6.670
 1192SOL    HW215608   8.088   3.895   6.599
 1193SOL     OW15609   0.850   8.158   5.224
 1193SOL    HW115610   0.805   8.242   5.193
 1193SOL    HW215611   0.782   8.098   5.266
 1194SOL     OW15612   3.432   1.533   6.163
 1194SOL    HW115613   3.489   1.460   6.124
 1194SOL    HW215614   3.412   1.601   6.092
 1195SOL     OW15615   1.986   2.961   1.077
 1195SOL    HW115616   2.015   2.949   1.172
 1195SOL    HW215617   1.913   2.897   1.056
 1196SOL     OW15618   0.301   0.263   1.213
 1196SOL    HW115619   0.260   0.342   1.258
 1196SOL    HW215620   0.251   0.181   1.238
 1197SOL     OW15621   7.307   6.691   6.380
 1197SOL    HW115622   7.239   6.752   6.339
 1197SOL    HW215623   7.289   6.597   6.351
 1198SOL     OW15624   7.656   0.136   1.311
 1198SOL    HW115625   7.661   0.199   1.388
 1198SOL    HW215626   7.740   0.082   1.307
 1199SOL     OW15627   7.284   3.700   1.355
 1199SOL    HW115628   7.187   3.680   1.356
 1199SOL    HW215629   7.311   3.743   1.441
 1200SOL     OW15630   1.128   3.048   6.246
 1200SOL    HW115631   1.059   2.989   6.288
 1200SOL    HW215632   1.144   3.128   6.305
 1201SOL     OW15633   8.697   3.031   5.659
 1201SOL    HW115634   8.628   3.007   5.728
 1201SOL    HW215635   8.674   2.988   5.572
 1202SOL     OW15636   2.394   6.068   5.942
 1202SOL    HW115637   2.329   5.994   5.959
 1202SOL    HW215638   2.443   6.050   5.857
 1203SOL     OW15639   4.189   8.364   1.174
 1203SOL    HW115640   4.120   8.333   1.238
 1203SOL    HW215641   4.145   8.403   1.093
 1204SOL     OW15642   5.252   0.677   1.001
 1204SOL    HW115643   5.190   0.671   0.923
 1204SOL    HW215644   5.342   0.643   0.975
 1205SOL     OW15645   5.029   6.939   6.895
 1205SOL    HW115646   5.095   6.974   6.962
 1205SOL    HW215647   4.938   6.933   6.938
 1206SOL     OW15648   2.869   6.147   6.137
 1206SOL    HW115649   2.790   6.086   6.147
 1206SOL    HW215650   2.841   6.240   6.160
 1207SOL     OW15651   6.439   4.966   6.876
 1207SOL    HW115652   6.355   4.920   6.847
 1207SOL    HW215653   6.451   5.051   6.824
 1208SOL     OW15654   9.307   5.616   6.859
 1208SOL    HW115655   9.218   5.660   6.871
 1208SOL    HW215656   9.380   5.682   6.876
 1209SOL     OW15657   5.133   7.851   6.721
 1209SOL    HW115658   5.189   7.769   6.706
 1209SOL    HW215659   5.188   7.932   6.702
 1210SOL     OW15660   8.015   3.801   0.309
 1210SOL    HW115661   7.955   3.866   0.263
 1210SOL    HW215662   8.064   3.848   0.382
 1211SOL     OW15663   5.196   2.994   0.623
 1211SOL    HW115664   5.114   2.959   0.579
 1211SOL    HW215665   5.269   3.005   0.555
 1212SOL     OW15666   9.260   3.226   1.786
 1212SOL    HW115667   9.322   3.174   1.846
 1212SOL    HW215668   9.217   3.165   1.720
 1213SOL     OW15669   4.960   0.964   6.492
 1213SOL    HW115670   4.976   0.889   6.555
 1213SOL    HW215671   5.034   0.968   6.425
 1214SOL     OW15672   5.858   0.034   2.304
 1214SOL    HW115673   5.908   0.100   2.359
 1214SOL    HW215674   5.863  -0.056   2.347
 1215SOL     OW15675   8.067   4.079   0.650
 1215SOL    HW115676   8.103   4.170   0.633
 1215SOL    HW215677   8.122   4.011   0.602
 1216SOL     OW15678   4.652   1.308   0.518
 1216SOL    HW115679   4.617   1.401   0.529
 1216SOL    HW215680   4.752   1.311   0.509
 1217SOL     OW15681   3.029   5.180   6.496
 1217SOL    HW115682   2.960   5.250   6.482
 1217SOL    HW215683   3.031   5.154   6.593
 1218SOL     OW15684   9.172   1.497   1.496
 1218SOL    HW115685   9.108   1.507   1.419
 1218SOL    HW215686   9.126   1.520   1.581
 1219SOL     OW15687   6.703   2.759   5.947
 1219SOL    HW115688   6.762   2.690   5.990
 1219SOL    HW215689   6.756   2.842   5.932
 1220SOL     OW15690   4.768   6.854   2.115
 1220SOL    HW115691   4.755   6.758   2.138
 1220SOL    HW215692   4.749   6.911   2.195
 1221SOL     OW15693   1.515   3.591   6.823
 1221SOL    HW115694   1.472   3.552   6.904
 1221SOL    HW215695   1.535   3.519   6.757
 1222SOL     OW15696   8.059   1.105   6.956
 1222SOL    HW115697   8.150   1.063   6.946
 1222SOL    HW215698   8.038   1.117   7.053
 1223SOL     OW15699   9.235   1.924   6.235
 1223SOL    HW115700   9.289   1.937   6.318
 1223SOL    HW215701   9.141   1.956   6.251
 1224SOL     OW15702   4.221   6.428   6.457
 1224SOL    HW115703   4.205   6.523   6.481
 1224SOL    HW215704   4.157   6.400   6.385
 1225SOL     OW15705   5.035   4.891   5.660
 1225SOL    HW115706   5.070   4.797   5.657
 1225SOL    HW215707   5.061   4.940   5.577
 1226SOL     OW15708   5.398   7.423   5.970
 1226SOL    HW115709   5.403   7.393   5.875
 1226SOL    HW215710   5.426   7.348   6.030
 1227SOL     OW15711   3.889   1.513   0.293
 1227SOL    HW115712   3.979   1.532   0.254
 1227SOL    HW215713   3.880   1.414   0.308
 1228SOL     OW15714   7.397   6.535   1.748
 1228SOL    HW115715   7.394   6.551   1.847
 1228SOL    HW215716   7.416   6.621   1.701
 1229SOL     OW15717   6.089   3.864   6.786
 1229SOL    HW115718   5.998   3.845   6.748
 1229SOL    HW215719   6.119   3.786   6.840
 1230SOL     OW15720   1.297   6.022   6.712
 1230SOL    HW115721   1.338   6.108   6.742
 1230SOL    HW215722   1.199   6.024   6.730
 1231SOL     OW15723   7.303   5.391   6.440
 1231SOL    HW115724   7.381   5.447   6.412
 1231SOL    HW215725   7.219   5.446   6.435
 1232SOL     OW15726   3.626   3.293   1.729
 1232SOL    HW115727   3.627   3.367   1.795
 1232SOL    HW215728   3.634   3.205   1.777
 1233SOL     OW15729   5.505   0.389   1.454
 1233SOL    HW115730   5.412   0.352   1.462
 1233SOL    HW215731   5.502   0.473   1.399
 1234SOL     OW15732   2.224   1.616   0.832
 1234SOL    HW115733   2.237   1.539   0.894
 1234SOL    HW215734   2.127   1.629   0.813
 1235SOL     OW15735   6.112   5.339   5.535
 1235SOL    HW115736   6.131   5.284   5.617
 1235SOL    HW215737   6.070   5.281   5.466
 1236SOL     OW15738   3.858   3.815   0.863
 1236SOL    HW115739   3.899   3.792   0.774
 1236SOL    HW215740   3.785   3.881   0.849
 1237SOL     OW15741   4.091   7.575   0.424
 1237SOL    HW115742   4.108   7.512   0.500
 1237SOL    HW215743   4.153   7.653   0.432
 1238SOL     OW15744   9.460   2.042   6.045
 1238SOL    HW115745   9.392   1.977   6.079
 1238SOL    HW215746   9.450   2.053   5.946
 1239SOL     OW15747   2.389   6.565   0.643
 1239SOL    HW115748   2.331   6.628   0.591
 1239SOL    HW215749   2.434   6.615   0.717
 1240SOL     OW15750   5.954   6.174   6.939
 1240SOL    HW115751   5.964   6.178   6.840
 1240SOL    HW215752   5.933   6.265   6.974
 1241SOL     OW15753   2.270   4.223   0.424
 1241SOL    HW115754   2.358   4.212   0.378
 1241SOL    HW215755   2.269   4.164   0.505
 1242SOL     OW15756   9.376   1.567   6.670
 1242SOL    HW115757   9.413   1.576   6.762
 1242SOL    HW215758   9.343   1.473   6.656
 1243SOL     OW15759   3.364   4.758   0.280
 1243SOL    HW115760   3.317   4.738   0.366
 1243SOL    HW215761   3.437   4.824   0.297
 1244SOL     OW15762   5.781   6.918   0.443
 1244SOL    HW115763   5.727   6.857   0.502
 1244SOL    HW215764   5.748   6.911   0.349
 1245SOL     OW15765   3.027   5.455   0.988
 1245SOL    HW115766   3.093   5.504   1.043
 1245SOL    HW215767   2.939   5.453   1.036
 1246SOL     OW15768   8.626   1.854   6.380
 1246SOL    HW115769   8.659   1.776   6.433
 1246SOL    HW215770   8.606   1.825   6.286
 1247SOL     OW15771   6.731   2.384   0.566
 1247SOL    HW115772   6.708   2.454   0.633
 1247SOL    HW215773   6.723   2.293   0.608
 1248SOL     OW15774   1.681   3.931   6.900
 1248SOL    HW115775   1.730   3.846   6.880
 1248SOL    HW215776   1.617   3.916   6.975
 1249SOL     OW15777   5.485   0.748   0.889
 1249SOL    HW115778   5.413   0.803   0.846
 1249SOL    HW215779   5.526   0.799   0.964
 1250SOL     OW15780   4.710   6.230   6.896
 1250SOL    HW115781   4.762   6.259   6.976
 1250SOL    HW215782   4.746   6.275   6.815
 1251SOL     OW15783   2.235   1.619   1.392
 1251SOL    HW115784   2.220   1.642   1.488
 1251SOL    HW215785   2.257   1.702   1.341
 1252SOL     OW15786   8.218   5.628   6.521
 1252SOL    HW115787   8.241   5.613   6.425
 1252SOL    HW215788   8.134   5.682   6.528
 1253SOL     OW15789   1.155   5.425   5.926
 1253SOL    HW115790   1.056   5.435   5.914
 1253SOL    HW215791   1.194   5.514   5.951
 1254SOL     OW15792   6.616   4.683   0.606
 1254SOL    HW115793   6.595   4.775   0.641
 1254SOL    HW215794   6.663   4.690   0.518
 1255SOL     OW15795   0.232   2.771   0.511
 1255SOL    HW115796   0.266   2.734   0.424
 1255SOL    HW215797   0.260   2.712   0.586
 1256SOL     OW15798   3.792   1.161   1.076
 1256SOL    HW115799   3.764   1.240   1.022
 1256SOL    HW215800   3.840   1.095   1.017
 1257SOL     OW15801   6.366   6.116   5.965
 1257SOL    HW115802   6.445   6.165   6.001
 1257SOL    HW215803   6.309   6.084   6.040
 1258SOL     OW15804   3.748   2.564   2.236
 1258SOL    HW115805   3.676   2.608   2.289
 1258SOL    HW215806   3.833   2.563   2.289
 1259SOL     OW15807   5.706   6.284   5.377
 1259SOL    HW115808   5.682   6.194   5.414
 1259SOL    HW215809   5.755   6.271   5.290
 1260SOL     OW15810   4.145   1.155   0.509
 1260SOL    HW115811   4.067   1.123   0.455
 1260SOL    HW215812   4.147   1.105   0.596
 1261SOL     OW15813   8.783   1.553   6.705
 1261SOL    HW115814   8.767   1.579   6.610
 1261SOL    HW215815   8.714   1.487   6.734
 1262SOL     OW15816   0.572   7.856   6.081
 1262SOL    HW115817   0.651   7.917   6.074
 1262SOL    HW215818   0.499   7.902   6.133
 1263SOL     OW15819   8.545   1.749   0.355
 1263SOL    HW115820   8.456   1.762   0.313
 1263SOL    HW215821   8.584   1.838   0.379
 1264SOL     OW15822   1.853   3.303   0.818
 1264SOL    HW115823   1.911   3.221   0.824
 1264SOL    HW215824   1.860   3.342   0.726
 1265SOL     OW15825   4.458   0.674   5.952
 1265SOL    HW115826   4.362   0.659   5.930
 1265SOL    HW215827   4.466   0.707   6.047
 1266SOL     OW15828   9.439   2.554   0.404
 1266SOL    HW115829   9.357   2.550   0.461
 1266SOL    HW215830   9.436   2.479   0.337
 1267SOL     OW15831   1.699   3.914   6.423
 1267SOL    HW115832   1.745   3.933   6.336
 1267SOL    HW215833   1.739   3.832   6.465
 1268SOL     OW15834   6.075   0.355   0.568
 1268SOL    HW115835   6.062   0.371   0.470
 1268SOL    HW215836   6.135   0.425   0.606
 1269SOL     OW15837   2.335   5.066   1.721
 1269SOL    HW115838   2.262   4.999   1.735
 1269SOL    HW215839   2.408   5.050   1.787
 1270SOL     OW15840   3.189   6.503   5.364
 1270SOL    HW115841   3.143   6.492   5.276
 1270SOL    HW215842   3.270   6.560   5.353
 1271SOL     OW15843   0.181   0.873   0.915
 1271SOL    HW115844   0.258   0.874   0.978
 1271SOL    HW215845   0.098   0.845   0.964
 1272SOL     OW15846   0.608   7.737   5.185
 1272SOL    HW115847   0.600   7.822   5.134
 1272SOL    HW215848   0.544   7.669   5.148
 1273SOL     OW15849   4.442   5.195   0.465
 1273SOL    HW115850   4.379   5.256   0.418
 1273SOL    HW215851   4.392   5.116   0.501
 1274SOL     OW15852   1.905   5.289   5.326
 1274SOL    HW115853   1.960   5.266   5.406
 1274SOL    HW215854   1.825   5.229   5.321
 1275SOL     OW15855   2.697   6.724   6.755
 1275SOL    HW115856   2.708   6.820   6.779
 1275SOL    HW215857   2.744   6.667   6.822
 1276SOL     OW15858   9.554   8.315   1.465
 1276SOL    HW115859   9.593   8.401   1.431
 1276SOL    HW215860   9.514   8.331   1.555
 1277SOL     OW15861   6.795   5.384   5.856
 1277SOL    HW115862   6.798   5.298   5.805
 1277SOL    HW215863   6.886   5.405   5.891
 1278SOL     OW15864   4.770   5.295   5.655
 1278SOL    HW115865   4.730   5.205   5.674
 1278SOL    HW215866   4.709   5.347   5.595
 1279SOL     OW15867   1.203   5.678   6.234
 1279SOL    HW115868   1.242   5.647   6.147
 1279SOL    HW215869   1.123   5.735   6.216
 1280SOL     OW15870   8.955   5.635   1.226
 1280SOL    HW115871   9.042   5.678   1.251
 1280SOL    HW215872   8.879   5.690   1.261
 1281SOL     OW15873   9.384   1.230   0.340
 1281SOL    HW115874   9.301   1.264   0.383
 1281SOL    HW215875   9.360   1.168   0.266
 1282SOL     OW15876   6.940   3.598   6.149
 1282SOL    HW115877   6.972   3.641   6.064
 1282SOL    HW215878   6.916   3.503   6.130
 1283SOL     OW15879   0.857   3.691   0.554
 1283SOL    HW115880   0.934   3.627   0.555
 1283SOL    HW215881   0.877   3.766   0.492
 1284SOL     OW15882   4.003   1.642   2.529
 1284SOL    HW115883   3.919   1.669   2.577
 1284SOL    HW215884   4.013   1.542   2.533
 1285SOL     OW15885   8.714   4.304   1.858
 1285SOL    HW115886   8.717   4.382   1.795
 1285SOL    HW215887   8.806   4.279   1.884
 1286SOL     OW15888   1.932   0.005   1.880
 1286SOL    HW115889   1.964  -0.089   1.871
 1286SOL    HW215890   2.010   0.066   1.895
 1287SOL     OW15891   2.487   1.690   6.426
 1287SOL    HW115892   2.397   1.669   6.388
 1287SOL    HW215893   2.543   1.734   6.355
 1288SOL     OW15894   1.218   1.006   0.909
 1288SOL    HW115895   1.291   1.067   0.940
 1288SOL    HW215896   1.235   0.978   0.814
 1289SOL     OW15897   5.346   4.021   6.664
 1289SOL    HW115898   5.386   4.048   6.751
 1289SOL    HW215899   5.315   4.102   6.614
 1290SOL     OW15900   4.211   1.170   5.644
 1290SOL    HW115901   4.299   1.125   5.663
 1290SOL    HW215902   4.211   1.261   5.684
 1291SOL     OW15903   1.989   0.355   6.154
 1291SOL    HW115904   1.901   0.350   6.107
 1291SOL    HW215905   2.063   0.351   6.088
 1292SOL     OW15906   8.018   7.048   6.531
 1292SOL    HW115907   8.073   6.965   6.517
 1292SOL    HW215908   8.057   7.101   6.606
 1293SOL     OW15909   8.831   2.904   0.294
 1293SOL    HW115910   8.747   2.942   0.254
 1293SOL    HW215911   8.910   2.936   0.241
 1294SOL     OW15912   6.099   0.403   5.012
 1294SOL    HW115913   6.122   0.495   5.044
 1294SOL    HW215914   6.004   0.401   4.982
 1295SOL     OW15915   7.603   3.354   1.208
 1295SOL    HW115916   7.675   3.394   1.266
 1295SOL    HW215917   7.604   3.254   1.218
 1296SOL     OW15918   3.750   6.710   1.091
 1296SOL    HW115919   3.667   6.688   1.141
 1296SOL    HW215920   3.828   6.665   1.134
 1297SOL     OW15921   7.889   8.049   6.035
 1297SOL    HW115922   7.919   8.000   6.117
 1297SOL    HW215923   7.942   8.133   6.024
 1298SOL     OW15924   2.502   0.516   1.002
 1298SOL    HW115925   2.409   0.483   0.986
 1298SOL    HW215926   2.502   0.616   1.004
 1299SOL     OW15927   3.524   7.657   0.786
 1299SOL    HW115928   3.553   7.742   0.828
 1299SOL    HW215929   3.571   7.580   0.829
 1300SOL     OW15930   5.459   3.091   1.048
 1300SOL    HW115931   5.446   3.176   1.099
 1300SOL    HW215932   5.551   3.055   1.066
 1301SOL     OW15933   7.678   7.314   5.827
 1301SOL    HW115934   7.740   7.331   5.903
 1301SOL    HW215935   7.713   7.238   5.772
 1302SOL     OW15936   1.605   5.566   6.760
 1302SOL    HW115937   1.681   5.536   6.702
 1302SOL    HW215938   1.622   5.660   6.790
 1303SOL     OW15939   6.872   3.886   1.418
 1303SOL    HW115940   6.823   3.973   1.412
 1303SOL    HW215941   6.859   3.835   1.333
 1304SOL     OW15942   6.005   1.494   0.435
 1304SOL    HW115943   5.980   1.413   0.382
 1304SOL    HW215944   5.951   1.572   0.403
 1305SOL     OW15945   8.467   3.677   1.235
 1305SOL    HW115946   8.515   3.740   1.174
 1305SOL    HW215947   8.382   3.647   1.191
 1306SOL     OW15948   0.582   6.591   5.209
 1306SOL    HW115949   0.623   6.556   5.293
 1306SOL    HW215950   0.588   6.521   5.137
 1307SOL     OW15951   8.602   7.811   0.855
 1307SOL    HW115952   8.626   7.782   0.762
 1307SOL    HW215953   8.526   7.875   0.850
 1308SOL     OW15954   4.500   7.379   6.609
 1308SOL    HW115955   4.429   7.345   6.547
 1308SOL    HW215956   4.486   7.477   6.625
 1309SOL     OW15957   7.578   2.721   1.681
 1309SOL    HW115958   7.628   2.797   1.721
 1309SOL    HW215959   7.482   2.726   1.709
 1310SOL     OW15960   5.143   7.424   6.239
 1310SOL    HW115961   5.241   7.435   6.255
 1310SOL    HW215962   5.126   7.334   6.198
 1311SOL     OW15963   0.330   2.586   0.701
 1311SOL    HW115964   0.270   2.510   0.729
 1311SOL    HW215965   0.425   2.555   0.700
 1312SOL     OW15966   4.499   5.464   1.796
 1312SOL    HW115967   4.570   5.499   1.734
 1312SOL    HW215968   4.528   5.477   1.890
 1313SOL     OW15969   6.705   8.097   0.940
 1313SOL    HW115970   6.683   8.102   0.842
 1313SOL    HW215971   6.754   8.012   0.959
 1314SOL     OW15972   8.512   0.850   6.879
 1314SOL    HW115973   8.589   0.859   6.942
 1314SOL    HW215974   8.495   0.753   6.862
 1315SOL     OW15975   0.157   7.065   6.186
 1315SOL    HW115976   0.181   6.995   6.254
 1315SOL    HW215977   0.231   7.075   6.120
 1316SOL     OW15978   1.630   1.233   5.927
 1316SOL    HW115979   1.565   1.219   5.852
 1316SOL    HW215980   1.680   1.148   5.943
 1317SOL     OW15981   4.174   1.695   6.152
 1317SOL    HW115982   4.122   1.716   6.069
 1317SOL    HW215983   4.244   1.627   6.131
 1318SOL     OW15984   3.233   1.788   6.798
 1318SOL    HW115985   3.176   1.750   6.725
 1318SOL    HW215986   3.174   1.825   6.870
 1319SOL     OW15987   3.855   1.231   0.769
 1319SOL    HW115988   3.816   1.308   0.820
 1319SOL    HW215989   3.952   1.221   0.792
 1320SOL     OW15990   9.445   2.169   5.785
 1320SOL    HW115991   9.471   2.178   5.689
 1320SOL    HW215992   9.520   2.201   5.843
 1321SOL     OW15993   5.556   1.635   0.896
 1321SOL    HW115994   5.475   1.587   0.863
 1321SOL    HW215995   5.634   1.612   0.837
 1322SOL     OW15996   0.864   7.781   6.379
 1322SOL    HW115997   0.842   7.753   6.473
 1322SOL    HW215998   0.926   7.859   6.381
 1323SOL     OW15999   2.965   6.554   1.101
 1323SOL    HW116000   3.048   6.610   1.106
 1323SOL    HW216001   2.911   6.583   1.022
 1324SOL     OW16002   5.855   1.346   1.920
 1324SOL    HW116003   5.848   1.278   1.994
 1324SOL    HW216004   5.771   1.347   1.867
 1325SOL     OW16005   0.538   6.244   6.375
 1325SOL    HW116006   0.483   6.260   6.457
 1325SOL    HW216007   0.518   6.153   6.338
 1326SOL     OW16008   3.418   8.112   6.403
 1326SOL    HW116009   3.454   8.077   6.317
 1326SOL    HW216010   3.361   8.042   6.446
 1327SOL     OW16011   5.200   3.457   6.066
 1327SOL    HW116012   5.218   3.518   5.988
 1327SOL    HW216013   5.284   3.409   6.091
 1328SOL     OW16014   1.382   0.790   4.736
 1328SOL    HW116015   1.308   0.852   4.765
 1328SOL    HW216016   1.469   0.839   4.737
 1329SOL     OW16017   4.009   2.788   1.332
 1329SOL    HW116018   4.084   2.852   1.319
 1329SOL    HW216019   3.985   2.746   1.245
 1330SOL     OW16020   7.446   5.400   5.679
 1330SOL    HW116021   7.433   5.333   5.606
 1330SOL    HW216022   7.514   5.468   5.652
 1331SOL     OW16023   5.131   5.752   5.378
 1331SOL    HW116024   5.100   5.709   5.293
 1331SOL    HW216025   5.133   5.851   5.366
 1332SOL     OW16026   6.577   4.870   1.748
 1332SOL    HW116027   6.483   4.848   1.723
 1332SOL    HW216028   6.582   4.893   1.845
 1333SOL     OW16029   2.741   5.104   1.575
 1333SOL    HW116030   2.769   5.076   1.483
 1333SOL    HW216031   2.676   5.038   1.612
 1334SOL     OW16032   2.677   3.863   6.514
 1334SOL    HW116033   2.579   3.859   6.493
 1334SOL    HW216034   2.707   3.958   6.513
 1335SOL     OW16035   5.915   4.875   0.545
 1335SOL    HW116036   5.945   4.851   0.637
 1335SOL    HW216037   5.877   4.967   0.545
 1336SOL     OW16038   4.085   2.654   1.597
 1336SOL    HW116039   4.127   2.710   1.669
 1336SOL    HW216040   4.032   2.713   1.536
 1337SOL     OW16041   4.625   7.348   0.971
 1337SOL    HW116042   4.720   7.337   1.000
 1337SOL    HW216043   4.595   7.265   0.924
 1338SOL     OW16044   4.702   1.818   0.558
 1338SOL    HW116045   4.644   1.890   0.596
 1338SOL    HW216046   4.766   1.786   0.629
 1339SOL     OW16047   3.925   4.422   0.504
 1339SOL    HW116048   3.998   4.407   0.437
 1339SOL    HW216049   3.963   4.467   0.585
 1340SOL     OW16050   4.351   5.780   1.155
 1340SOL    HW116051   4.344   5.861   1.096
 1340SOL    HW216052   4.355   5.698   1.098
 1341SOL     OW16053   5.459   6.639   6.752
 1341SOL    HW116054   5.553   6.626   6.719
 1341SOL    HW216055   5.456   6.623   6.851
 1342SOL     OW16056   4.215   8.327   1.827
 1342SOL    HW116057   4.147   8.373   1.884
 1342SOL    HW216058   4.297   8.308   1.881
 1343SOL     OW16059   3.477   2.619   6.871
 1343SOL    HW116060   3.420   2.537   6.882
 1343SOL    HW216061   3.532   2.632   6.953
 1344SOL     OW16062   3.973   6.433   5.778
 1344SOL    HW116063   4.055   6.439   5.721
 1344SOL    HW216064   3.914   6.359   5.745
 1345SOL     OW16065   5.084   0.598   6.407
 1345SOL    HW116066   5.177   0.631   6.426
 1345SOL    HW216067   5.080   0.561   6.314
 1346SOL     OW16068   1.693   0.331   6.786
 1346SOL    HW116069   1.655   0.419   6.816
 1346SOL    HW216070   1.785   0.321   6.825
 1347SOL     OW16071   5.270   7.664   6.030
 1347SOL    HW116072   5.267   7.660   6.130
 1347SOL    HW216073   5.328   7.590   5.995
 1348SOL     OW16074   6.790   4.504   1.181
 1348SOL    HW116075   6.739   4.419   1.192
 1348SOL    HW216076   6.887   4.488   1.197
 1349SOL     OW16077   6.765   0.721   6.416
 1349SOL    HW116078   6.704   0.675   6.480
 1349SOL    HW216079   6.711   0.769   6.347
 1350SOL     OW16080   1.483   6.828   4.348
 1350SOL    HW116081   1.450   6.761   4.281
 1350SOL    HW216082   1.560   6.879   4.309
 1351SOL     OW16083   0.345   0.807   5.922
 1351SOL    HW116084   0.260   0.755   5.926
 1351SOL    HW216085   0.395   0.795   6.008
 1352SOL     OW16086   8.450   5.039   5.414
 1352SOL    HW116087   8.359   5.072   5.391
 1352SOL    HW216088   8.505   5.033   5.330
 1353SOL     OW16089   0.363   5.721   1.403
 1353SOL    HW116090   0.457   5.722   1.438
 1353SOL    HW216091   0.313   5.799   1.439
 1354SOL     OW16092   5.526   4.556   6.310
 1354SOL    HW116093   5.600   4.593   6.366
 1354SOL    HW216094   5.565   4.501   6.236
 1355SOL     OW16095   3.885   0.255   6.645
 1355SOL    HW116096   3.885   0.155   6.642
 1355SOL    HW216097   3.851   0.286   6.734
 1356SOL     OW16098   4.164   7.033   6.171
 1356SOL    HW116099   4.185   7.018   6.074
 1356SOL    HW216100   4.232   7.095   6.210
 1357SOL     OW16101   5.207   5.716   6.915
 1357SOL    HW116102   5.300   5.706   6.877
 1357SOL    HW216103   5.162   5.627   6.915
 1358SOL     OW16104   2.733   5.362   6.409
 1358SOL    HW116105   2.683   5.398   6.488
 1358SOL    HW216106   2.770   5.437   6.356
 1359SOL     OW16107   4.679   8.355   6.742
 1359SOL    HW116108   4.777   8.365   6.727
 1359SOL    HW216109   4.631   8.431   6.697
 1360SOL     OW16110   2.020   6.949   6.104
 1360SOL    HW116111   1.999   7.035   6.151
 1360SOL    HW216112   2.074   6.967   6.022
 1361SOL     OW16113   3.784   8.039   6.287
 1361SOL    HW116114   3.825   8.129   6.272
 1361SOL    HW216115   3.761   8.028   6.383
 1362SOL     OW16116   6.790   7.104   6.010
 1362SOL    HW116117   6.785   7.014   5.968
 1362SOL    HW216118   6.833   7.168   5.947
 1363SOL     OW16119   6.838   5.329   0.780
 1363SOL    HW116120   6.877   5.239   0.802
 1363SOL    HW216121   6.778   5.321   0.701
 1364SOL     OW16122   4.131   2.400   1.632
 1364SOL    HW116123   4.206   2.395   1.566
 1364SOL    HW216124   4.097   2.494   1.636
 1365SOL     OW16125   0.591   6.548   0.507
 1365SOL    HW116126   0.592   6.478   0.436
 1365SOL    HW216127   0.669   6.609   0.495
 1366SOL     OW16128   7.081   5.461   1.643
 1366SOL    HW116129   7.095   5.514   1.726
 1366SOL    HW216130   7.162   5.406   1.624
 1367SOL     OW16131   1.957   4.259   6.931
 1367SOL    HW116132   2.040   4.215   6.898
 1367SOL    HW216133   1.953   4.353   6.898
 1368SOL     OW16134   0.562   0.616   0.770
 1368SOL    HW116135   0.524   0.602   0.679
 1368SOL    HW216136   0.509   0.566   0.838
 1369SOL     OW16137   4.587   4.559   0.905
 1369SOL    HW116138   4.615   4.466   0.882
 1369SOL    HW216139   4.508   4.585   0.851
 1370SOL     OW16140   5.609   3.830   6.063
 1370SOL    HW116141   5.671   3.773   6.116
 1370SOL    HW216142   5.517   3.827   6.104
 1371SOL     OW16143   4.318   1.129   0.293
 1371SOL    HW116144   4.289   1.165   0.205
 1371SOL    HW216145   4.255   1.160   0.364
 1372SOL     OW16146   3.291   1.499   1.756
 1372SOL    HW116147   3.388   1.474   1.758
 1372SOL    HW216148   3.256   1.489   1.662
 1373SOL     OW16149   8.740   0.586   1.378
 1373SOL    HW116150   8.675   0.530   1.430
 1373SOL    HW216151   8.803   0.631   1.442
 1374SOL     OW16152   6.624   0.210   1.435
 1374SOL    HW116153   6.625   0.273   1.357
 1374SOL    HW216154   6.712   0.213   1.482
 1375SOL     OW16155   8.688   6.502   0.997
 1375SOL    HW116156   8.676   6.545   1.086
 1375SOL    HW216157   8.689   6.403   1.008
 1376SOL     OW16158   1.934   7.746   5.457
 1376SOL    HW116159   1.941   7.823   5.393
 1376SOL    HW216160   1.950   7.661   5.408
 1377SOL     OW16161   8.834   2.320   0.840
 1377SOL    HW116162   8.775   2.319   0.920
 1377SOL    HW216163   8.782   2.292   0.759
 1378SOL     OW16164   8.411   4.726   6.724
 1378SOL    HW116165   8.338   4.666   6.691
 1378SOL    HW216166   8.386   4.821   6.709
 1379SOL     OW16167   2.055   5.308   6.396
 1379SOL    HW116168   2.055   5.347   6.304
 1379SOL    HW216169   2.094   5.373   6.460
 1380SOL     OW16170   5.046   3.273   6.574
 1380SOL    HW116171   5.084   3.328   6.500
 1380SOL    HW216172   5.057   3.323   6.660
 1381SOL     OW16173   6.039   2.322   5.551
 1381SOL    HW116174   5.960   2.378   5.528
 1381SOL    HW216175   6.116   2.381   5.575
 1382SOL     OW16176   3.619   7.406   1.158
 1382SOL    HW116177   3.638   7.400   1.060
 1382SOL    HW216178   3.555   7.333   1.184
 1383SOL     OW16179   7.884   7.610   5.301
 1383SOL    HW116180   7.809   7.662   5.262
 1383SOL    HW216181   7.966   7.668   5.307
 1384SOL     OW16182   2.565   1.214   6.782
 1384SOL    HW116183   2.593   1.238   6.688
 1384SOL    HW216184   2.541   1.297   6.831
 1385SOL     OW16185   1.256   4.094   6.573
 1385SOL    HW116186   1.222   4.183   6.602
 1385SOL    HW216187   1.350   4.102   6.541
 1386SOL     OW16188   7.640   3.256   0.742
 1386SOL    HW116189   7.557   3.310   0.730
 1386SOL    HW216190   7.643   3.219   0.835
 1387SOL     OW16191   4.668   4.140   0.487
 1387SOL    HW116192   4.695   4.120   0.581
 1387SOL    HW216193   4.587   4.087   0.464
 1388SOL     OW16194   2.088   5.199   5.487
 1388SOL    HW116195   2.169   5.150   5.456
 1388SOL    HW216196   2.115   5.277   5.543
 1389SOL     OW16197   2.863   3.774   5.793
 1389SOL    HW116198   2.927   3.847   5.770
 1389SOL    HW216199   2.897   3.687   5.757
 1390SOL     OW16200   2.962   0.347   5.168
 1390SOL    HW116201   2.959   0.281   5.092
 1390SOL    HW216202   2.873   0.392   5.176
 1391SOL     OW16203   6.716   0.092   0.297
 1391SOL    HW116204   6.695  -0.006   0.299
 1391SOL    HW216205   6.726   0.122   0.202
 1392SOL     OW16206   1.151   6.235   1.253
 1392SOL    HW116207   1.197   6.165   1.198
 1392SOL    HW216208   1.094   6.292   1.194
 1393SOL     OW16209   7.477   8.001   0.816
 1393SOL    HW116210   7.568   8.042   0.804
 1393SOL    HW216211   7.459   7.937   0.741
 1394SOL     OW16212   0.167   2.795   0.801
 1394SOL    HW116213   0.236   2.728   0.775
 1394SOL    HW216214   0.209   2.885   0.812
 1395SOL     OW16215   1.240   0.666   0.892
 1395SOL    HW116216   1.173   0.695   0.960
 1395SOL    HW216217   1.223   0.713   0.805
 1396SOL     OW16218   9.034   7.633   5.819
 1396SOL    HW116219   8.973   7.556   5.802
 1396SOL    HW216220   9.071   7.628   5.911
 1397SOL     OW16221   0.666   6.521   5.464
 1397SOL    HW116222   0.573   6.527   5.501
 1397SOL    HW216223   0.720   6.456   5.518
 1398SOL     OW16224   1.126   5.313   6.934
 1398SOL    HW116225   1.150   5.231   6.882
 1398SOL    HW216226   1.111   5.389   6.871
 1399SOL     OW16227   4.557   7.139   6.072
 1399SOL    HW116228   4.530   7.234   6.054
 1399SOL    HW216229   4.588   7.131   6.167
 1400SOL     OW16230   4.537   4.000   1.916
 1400SOL    HW116231   4.560   3.951   1.832
 1400SOL    HW216232   4.618   4.006   1.975
 1401SOL     OW16233   1.434   6.014   6.129
 1401SOL    HW116234   1.464   6.108   6.146
 1401SOL    HW216235   1.349   5.996   6.179
 1402SOL     OW16236   0.804   5.588   0.286
 1402SOL    HW116237   0.865   5.645   0.340
 1402SOL    HW216238   0.710   5.600   0.318
 1403SOL     OW16239   1.235   4.714   5.374
 1403SOL    HW116240   1.276   4.624   5.385
 1403SOL    HW216241   1.216   4.731   5.277
 1404SOL     OW16242   0.654   8.416   5.068
 1404SOL    HW116243   0.586   8.460   5.009
 1404SOL    HW216244   0.612   8.338   5.114
 1405SOL     OW16245   1.005   3.810   5.381
 1405SOL    HW116246   0.926   3.787   5.324
 1405SOL    HW216247   1.089   3.782   5.334
 1406SOL     OW16248   6.173   5.250   1.908
 1406SOL    HW116249   6.265   5.226   1.878
 1406SOL    HW216250   6.177   5.327   1.971
 1407SOL     OW16251   2.068   3.504   0.838
 1407SOL    HW116252   2.086   3.495   0.740
 1407SOL    HW216253   2.026   3.419   0.871
 1408SOL     OW16254   2.541   6.712   6.379
 1408SOL    HW116255   2.509   6.675   6.466
 1408SOL    HW216256   2.638   6.691   6.368
 1409SOL     OW16257   1.480   0.183   6.835
 1409SOL    HW116258   1.546   0.258   6.839
 1409SOL    HW216259   1.501   0.123   6.759
 1410SOL     OW16260   8.348   7.720   1.285
 1410SOL    HW116261   8.249   7.723   1.276
 1410SOL    HW216262   8.374   7.661   1.361
 1411SOL     OW16263   7.464   5.086   4.880
 1411SOL    HW116264   7.527   5.042   4.944
 1411SOL    HW216265   7.457   5.031   4.797
 1412SOL     OW16266   8.707   7.397   0.931
 1412SOL    HW116267   8.652   7.473   0.967
 1412SOL    HW216268   8.791   7.388   0.984
 1413SOL     OW16269   7.487   5.548   5.335
 1413SOL    HW116270   7.543   5.539   5.253
 1413SOL    HW216271   7.423   5.472   5.340
 1414SOL     OW16272   4.567   0.140   0.449
 1414SOL    HW116273   4.521   0.063   0.403
 1414SOL    HW216274   4.524   0.226   0.422
 1415SOL     OW16275   1.487   5.794   4.622
 1415SOL    HW116276   1.418   5.750   4.564
 1415SOL    HW216277   1.484   5.893   4.607
 1416SOL     OW16278   5.429   2.069   1.724
 1416SOL    HW116279   5.375   2.071   1.640
 1416SOL    HW216280   5.368   2.067   1.803
 1417SOL     OW16281   8.986   4.881   5.376
 1417SOL    HW116282   9.024   4.958   5.325
 1417SOL    HW216283   8.887   4.878   5.362
 1418SOL     OW16284   5.765   8.107   1.724
 1418SOL    HW116285   5.701   8.109   1.648
 1418SOL    HW216286   5.804   8.198   1.737
 1419SOL     OW16287   7.229   0.646   6.653
 1419SOL    HW116288   7.162   0.616   6.721
 1419SOL    HW216289   7.183   0.666   6.567
 1420SOL     OW16290   2.183   2.035   6.518
 1420SOL    HW116291   2.099   2.065   6.563
 1420SOL    HW216292   2.223   1.958   6.567
 1421SOL     OW16293   7.716   1.792   0.375
 1421SOL    HW116294   7.719   1.849   0.293
 1421SOL    HW216295   7.792   1.816   0.435
 1422SOL     OW16296   3.342   4.909   6.324
 1422SOL    HW116297   3.298   4.912   6.413
 1422SOL    HW216298   3.273   4.892   6.253
 1423SOL     OW16299   0.565   6.338   6.138
 1423SOL    HW116300   0.565   6.308   6.233
 1423SOL    HW216301   0.484   6.393   6.119
 1424SOL     OW16302   0.635   6.346   0.340
 1424SOL    HW116303   0.688   6.358   0.256
 1424SOL    HW216304   0.657   6.258   0.381
 1425SOL     OW16305   6.616   0.587   1.829
 1425SOL    HW116306   6.634   0.496   1.866
 1425SOL    HW216307   6.692   0.647   1.849
 1426SOL     OW16308   6.016   1.159   1.700
 1426SOL    HW116309   5.921   1.159   1.667
 1426SOL    HW216310   6.019   1.122   1.793
 1427SOL     OW16311   8.615   0.047   0.401
 1427SOL    HW116312   8.679   0.120   0.379
 1427SOL    HW216313   8.666  -0.036   0.423
 1428SOL     OW16314   6.366   8.420   0.922
 1428SOL    HW116315   6.276   8.379   0.913
 1428SOL    HW216316   6.367   8.509   0.877
 1429SOL     OW16317   6.206   1.597   2.227
 1429SOL    HW116318   6.207   1.656   2.146
 1429SOL    HW216319   6.300   1.571   2.250
 1430SOL     OW16320   4.771   3.634   6.955
 1430SOL    HW116321   4.855   3.686   6.972
 1430SOL    HW216322   4.721   3.675   6.879
 1431SOL     OW16323   2.040   1.279   5.145
 1431SOL    HW116324   2.062   1.375   5.158
 1431SOL    HW216325   2.125   1.226   5.141
 1432SOL     OW16326   5.256   1.137   5.921
 1432SOL    HW116327   5.191   1.207   5.889
 1432SOL    HW216328   5.347   1.158   5.886
 1433SOL     OW16329   8.049   7.885   1.109
 1433SOL    HW116330   8.043   7.809   1.174
 1433SOL    HW216331   7.987   7.868   1.032
 1434SOL     OW16332   6.317   7.182   6.707
 1434SOL    HW116333   6.268   7.227   6.632
 1434SOL    HW216334   6.306   7.083   6.699
 1435SOL     OW16335   5.821   1.237   2.302
 1435SOL    HW116336   5.840   1.193   2.214
 1435SOL    HW216337   5.906   1.276   2.338
 1436SOL     OW16338   8.047   0.795   6.154
 1436SOL    HW116339   7.968   0.821   6.099
 1436SOL    HW216340   8.029   0.710   6.202
 1437SOL     OW16341   0.867   7.228   4.933
 1437SOL    HW116342   0.849   7.157   5.000
 1437SOL    HW216343   0.966   7.240   4.922
 1438SOL     OW16344   1.255   3.526   5.319
 1438SOL    HW116345   1.215   3.435   5.307
 1438SOL    HW216346   1.219   3.587   5.248
 1439SOL     OW16347   7.960   3.912   6.058
 1439SOL    HW116348   7.913   3.863   5.985
 1439SOL    HW216349   7.919   3.888   6.146
 1440SOL     OW16350   3.328   7.174   1.435
 1440SOL    HW116351   3.385   7.115   1.378
 1440SOL    HW216352   3.373   7.190   1.523
 1441SOL     OW16353   6.692   5.130   6.495
 1441SOL    HW116354   6.780   5.142   6.449
 1441SOL    HW216355   6.685   5.196   6.570
 1442SOL     OW16356   4.035   6.528   0.274
 1442SOL    HW116357   4.007   6.450   0.329
 1442SOL    HW216358   4.113   6.502   0.217
 1443SOL     OW16359   3.811   7.780   5.028
 1443SOL    HW116360   3.803   7.683   5.049
 1443SOL    HW216361   3.907   7.803   5.011
 1444SOL     OW16362   8.837   0.121   6.400
 1444SOL    HW116363   8.746   0.150   6.369
 1444SOL    HW216364   8.872   0.050   6.340
 1445SOL     OW16365   1.676   5.281   0.341
 1445SOL    HW116366   1.643   5.350   0.406
 1445SOL    HW216367   1.645   5.191   0.369
 1446SOL     OW16368   9.587   6.081   6.632
 1446SOL    HW116369   9.600   6.144   6.555
 1446SOL    HW216370   9.666   6.020   6.639
 1447SOL     OW16371   8.045   1.936   1.188
 1447SOL    HW116372   8.104   1.861   1.159
 1447SOL    HW216373   8.094   2.023   1.175
 1448SOL     OW16374   1.215   6.761   4.996
 1448SOL    HW116375   1.239   6.666   4.973
 1448SOL    HW216376   1.210   6.771   5.095
 1449SOL     OW16377   9.165   0.407   5.984
 1449SOL    HW116378   9.109   0.475   6.033
 1449SOL    HW216379   9.260   0.438   5.982
 1450SOL     OW16380   5.283   0.759   0.641
 1450SOL    HW116381   5.301   0.842   0.693
 1450SOL    HW216382   5.222   0.699   0.693
 1451SOL     OW16383   4.103   2.013   5.600
 1451SOL    HW116384   4.027   2.074   5.577
 1451SOL    HW216385   4.188   2.052   5.568
 1452SOL     OW16386   9.193   7.690   6.037
 1452SOL    HW116387   9.153   7.764   6.092
 1452SOL    HW216388   9.233   7.622   6.098
 1453SOL     OW16389   7.248   5.753   1.979
 1453SOL    HW116390   7.309   5.775   1.903
 1453SOL    HW216391   7.266   5.814   2.056
 1454SOL     OW16392   2.139   1.018   6.456
 1454SOL    HW116393   2.068   1.070   6.503
 1454SOL    HW216394   2.183   0.955   6.520
 1455SOL     OW16395   2.410   4.912   0.969
 1455SOL    HW116396   2.393   4.948   1.060
 1455SOL    HW216397   2.412   4.812   0.972
 1456SOL     OW16398   1.996   1.773   6.014
 1456SOL    HW116399   2.038   1.684   6.034
 1456SOL    HW216400   2.064   1.833   5.973
 1457SOL     OW16401   1.948   0.404   1.400
 1457SOL    HW116402   1.864   0.395   1.454
 1457SOL    HW216403   1.930   0.457   1.317
 1458SOL     OW16404   0.360   7.013   6.605
 1458SOL    HW116405   0.347   7.036   6.702
 1458SOL    HW216406   0.391   7.094   6.556
 1459SOL     OW16407   4.257   6.581   0.807
 1459SOL    HW116408   4.256   6.543   0.714
 1459SOL    HW216409   4.188   6.533   0.862
 1460SOL     OW16410   0.155   6.841   0.857
 1460SOL    HW116411   0.213   6.876   0.783
 1460SOL    HW216412   0.194   6.757   0.893
 1461SOL     OW16413   6.638   5.579   6.947
 1461SOL    HW116414   6.709   5.511   6.965
 1461SOL    HW216415   6.624   5.589   6.849
 1462SOL     OW16416   3.495   8.300   5.591
 1462SOL    HW116417   3.479   8.399   5.592
 1462SOL    HW216418   3.407   8.252   5.588
 1463SOL     OW16419   1.295   0.075   1.271
 1463SOL    HW116420   1.330   0.157   1.226
 1463SOL    HW216421   1.195   0.074   1.266
 1464SOL     OW16422   6.391   5.533   0.324
 1464SOL    HW116423   6.405   5.485   0.411
 1464SOL    HW216424   6.462   5.603   0.314
 1465SOL     OW16425   5.999   2.143   6.584
 1465SOL    HW116426   6.080   2.155   6.526
 1465SOL    HW216427   6.028   2.123   6.678
 1466SOL     OW16428   7.143   4.038   0.319
 1466SOL    HW116429   7.125   3.989   0.233
 1466SOL    HW216430   7.056   4.055   0.366
 1467SOL     OW16431   4.066   2.859   0.411
 1467SOL    HW116432   4.119   2.914   0.475
 1467SOL    HW216433   4.124   2.827   0.337
 1468SOL     OW16434   3.914   2.597   6.170
 1468SOL    HW116435   3.855   2.523   6.201
 1468SOL    HW216436   3.871   2.685   6.189
 1469SOL     OW16437   3.520   0.801   5.376
 1469SOL    HW116438   3.478   0.721   5.334
 1469SOL    HW216439   3.593   0.836   5.317
 1470SOL     OW16440   5.482   2.150   6.908
 1470SOL    HW116441   5.568   2.104   6.930
 1470SOL    HW216442   5.492   2.248   6.921
 1471SOL     OW16443   8.109   5.194   5.963
 1471SOL    HW116444   8.166   5.276   5.970
 1471SOL    HW216445   8.114   5.142   6.048
 1472SOL     OW16446   0.417   2.950   0.779
 1472SOL    HW116447   0.448   3.033   0.826
 1472SOL    HW216448   0.463   2.943   0.691
 1473SOL     OW16449   4.397   2.615   6.284
 1473SOL    HW116450   4.453   2.555   6.226
 1473SOL    HW216451   4.300   2.604   6.260
 1474SOL     OW16452   6.059   7.239   1.794
 1474SOL    HW116453   6.120   7.159   1.791
 1474SOL    HW216454   6.111   7.319   1.822
 1475SOL     OW16455   1.072   1.214   0.370
 1475SOL    HW116456   1.051   1.290   0.431
 1475SOL    HW216457   1.000   1.206   0.301
 1476SOL     OW16458   3.207   5.424   1.425
 1476SOL    HW116459   3.175   5.351   1.484
 1476SOL    HW216460   3.304   5.411   1.404
 1477SOL     OW16461   3.657   3.985   1.384
 1477SOL    HW116462   3.558   3.983   1.371
 1477SOL    HW216463   3.700   3.917   1.324
 1478SOL     OW16464   1.544   2.010   0.501
 1478SOL    HW116465   1.590   2.099   0.503
 1478SOL    HW216466   1.570   1.961   0.417
 1479SOL     OW16467   4.199   8.123   6.053
 1479SOL    HW116468   4.290   8.142   6.090
 1479SOL    HW216469   4.157   8.047   6.104
 1480SOL     OW16470   6.309   7.070   5.839
 1480SOL    HW116471   6.349   6.997   5.784
 1480SOL    HW216472   6.364   7.083   5.922
 1481SOL     OW16473   1.805   2.669   1.027
 1481SOL    HW116474   1.853   2.647   1.112
 1481SOL    HW216475   1.731   2.733   1.047
 1482SOL     OW16476   6.054   6.308   1.445
 1482SOL    HW116477   6.074   6.393   1.494
 1482SOL    HW216478   5.997   6.328   1.365
 1483SOL     OW16479   5.885   7.844   0.446
 1483SOL    HW116480   5.953   7.770   0.443
 1483SOL    HW216481   5.928   7.926   0.484
 1484SOL     OW16482   6.196  -0.018   5.752
 1484SOL    HW116483   6.213   0.054   5.685
 1484SOL    HW216484   6.196  -0.107   5.706
 1485SOL     OW16485   4.308   5.188   1.347
 1485SOL    HW116486   4.295   5.116   1.278
 1485SOL    HW216487   4.228   5.191   1.407
 1486SOL     OW16488   6.897   1.696   5.680
 1486SOL    HW116489   6.952   1.772   5.645
 1486SOL    HW216490   6.944   1.610   5.662
 1487SOL     OW16491   9.437   6.354   4.909
 1487SOL    HW116492   9.346   6.380   4.876
 1487SOL    HW216493   9.495   6.329   4.831
 1488SOL     OW16494   3.539   2.993   5.932
 1488SOL    HW116495   3.592   3.047   5.865
 1488SOL    HW216496   3.444   2.986   5.901
 1489SOL     OW16497   0.987   4.785   1.162
 1489SOL    HW116498   0.918   4.716   1.140
 1489SOL    HW216499   1.006   4.782   1.260
 1490SOL     OW16500   9.251   5.851   5.944
 1490SOL    HW116501   9.329   5.799   5.976
 1490SOL    HW216502   9.271   5.949   5.948
 1491SOL     OW16503   6.807   7.093   6.673
 1491SOL    HW116504   6.830   7.019   6.610
 1491SOL    HW216505   6.885   7.154   6.682
 1492SOL     OW16506   3.346   7.310   6.556
 1492SOL    HW116507   3.265   7.277   6.508
 1492SOL    HW216508   3.419   7.329   6.491
 1493SOL     OW16509   5.167   5.920   0.365
 1493SOL    HW116510   5.146   5.850   0.296
 1493SOL    HW216511   5.242   5.978   0.332
 1494SOL     OW16512   0.518   1.246   0.624
 1494SOL    HW116513   0.548   1.157   0.587
 1494SOL    HW216514   0.558   1.320   0.569
 1495SOL     OW16515   7.675   0.964   6.563
 1495SOL    HW116516   7.602   1.018   6.606
 1495SOL    HW216517   7.647   0.938   6.471
 1496SOL     OW16518   9.142   5.690   0.532
 1496SOL    HW116519   9.164   5.669   0.627
 1496SOL    HW216520   9.133   5.605   0.480
 1497SOL     OW16521   7.341   0.802   0.347
 1497SOL    HW116522   7.372   0.832   0.437
 1497SOL    HW216523   7.387   0.717   0.323
 1498SOL     OW16524   3.083  -0.057   1.174
 1498SOL    HW116525   3.125  -0.142   1.206
 1498SOL    HW216526   3.005  -0.034   1.233
 1499SOL     OW16527   3.959   5.876   1.413
 1499SOL    HW116528   3.998   5.784   1.418
 1499SOL    HW216529   3.860   5.869   1.400
 1500SOL     OW16530   0.356   2.004   1.374
 1500SOL    HW116531   0.427   2.071   1.354
 1500SOL    HW216532   0.392   1.934   1.435
 1501SOL     OW16533   6.947   6.009   5.861
 1501SOL    HW116534   6.892   6.088   5.888
 1501SOL    HW216535   6.993   6.027   5.774
 1502SOL     OW16536   4.317   1.076   1.598
 1502SOL    HW116537   4.400   1.079   1.653
 1502SOL    HW216538   4.328   1.133   1.517
 1503SOL     OW16539   8.195   3.768   6.130
 1503SOL    HW116540   8.105   3.811   6.130
 1503SOL    HW216541   8.266   3.838   6.119
 1504SOL     OW16542   7.078   2.301   6.344
 1504SOL    HW116543   7.042   2.217   6.384
 1504SOL    HW216544   7.028   2.322   6.260
 1505SOL     OW16545   4.583   1.077   0.374
 1505SOL    HW116546   4.486   1.083   0.355
 1505SOL    HW216547   4.609   1.149   0.440
 1506SOL     OW16548   1.327   4.946   5.619
 1506SOL    HW116549   1.366   4.871   5.673
 1506SOL    HW216550   1.374   4.951   5.530
 1507SOL     OW16551   5.277   0.084   0.523
 1507SOL    HW116552   5.260   0.026   0.444
 1507SOL    HW216553   5.227   0.049   0.602
 1508SOL     OW16554   6.535   1.779   1.056
 1508SOL    HW116555   6.458   1.841   1.071
 1508SOL    HW216556   6.620   1.832   1.064
 1509SOL     OW16557   6.717   6.922   0.471
 1509SOL    HW116558   6.746   6.944   0.564
 1509SOL    HW216559   6.790   6.942   0.407
 1510SOL     OW16560   8.752   7.514   5.457
 1510SOL    HW116561   8.784   7.515   5.551
 1510SOL    HW216562   8.750   7.420   5.423
 1511SOL     OW16563   3.773   2.431   1.857
 1511SOL    HW116564   3.861   2.425   1.906
 1511SOL    HW216565   3.701   2.390   1.913
 1512SOL     OW16566   8.723   6.072   0.404
 1512SOL    HW116567   8.646   6.066   0.468
 1512SOL    HW216568   8.805   6.099   0.453
 1513SOL     OW16569   9.098   8.006   0.742
 1513SOL    HW116570   9.091   7.925   0.799
 1513SOL    HW216571   9.173   7.996   0.677
 1514SOL     OW16572   4.276   2.295   6.877
 1514SOL    HW116573   4.281   2.340   6.966
 1514SOL    HW216574   4.281   2.364   6.805
 1515SOL     OW16575   2.680   3.435   0.813
 1515SOL    HW116576   2.748   3.435   0.887
 1515SOL    HW216577   2.666   3.528   0.780
 1516SOL     OW16578   4.080   6.312   6.260
 1516SOL    HW116579   4.082   6.214   6.243
 1516SOL    HW216580   4.002   6.353   6.212
 1517SOL     OW16581   3.336   0.203   6.522
 1517SOL    HW116582   3.411   0.182   6.459
 1517SOL    HW216583   3.368   0.192   6.616
 1518SOL     OW16584   7.909   5.830   0.246
 1518SOL    HW116585   7.826   5.775   0.234
 1518SOL    HW216586   7.883   5.921   0.279
 1519SOL     OW16587   5.904   7.460   0.973
 1519SOL    HW116588   5.836   7.532   0.991
 1519SOL    HW216589   5.987   7.502   0.937
 1520SOL     OW16590   9.382   2.619   6.614
 1520SOL    HW116591   9.415   2.679   6.542
 1520SOL    HW216592   9.306   2.662   6.662
 1521SOL     OW16593   1.106   7.688   1.596
 1521SOL    HW116594   1.063   7.633   1.669
 1521SOL    HW216595   1.107   7.784   1.624
 1522SOL     OW16596   4.363   0.003   0.269
 1522SOL    HW116597   4.365   0.067   0.192
 1522SOL    HW216598   4.425  -0.074   0.250
 1523SOL     OW16599   2.632   5.170   1.089
 1523SOL    HW116600   2.550   5.225   1.110
 1523SOL    HW216601   2.619   5.124   1.002
 1524SOL     OW16602   7.134   7.516   1.739
 1524SOL    HW116603   7.162   7.474   1.825
 1524SOL    HW216604   7.055   7.575   1.754
 1525SOL     OW16605   3.494   6.990   1.293
 1525SOL    HW116606   3.473   7.053   1.218
 1525SOL    HW216607   3.593   6.979   1.301
 1526SOL     OW16608   1.708   0.135   1.541
 1526SOL    HW116609   1.734   0.039   1.547
 1526SOL    HW216610   1.739   0.184   1.622
 1527SOL     OW16611   6.473   0.207   0.850
 1527SOL    HW116612   6.440   0.283   0.794
 1527SOL    HW216613   6.571   0.220   0.867
 1528SOL     OW16614   2.316   0.160   6.387
 1528SOL    HW116615   2.270   0.194   6.306
 1528SOL    HW216616   2.322   0.234   6.455
 1529SOL     OW16617   4.057   1.279   6.936
 1529SOL    HW116618   4.091   1.355   6.990
 1529SOL    HW216619   4.018   1.209   6.996
 1530SOL     OW16620   8.473   2.193   6.106
 1530SOL    HW116621   8.387   2.146   6.128
 1530SOL    HW216622   8.455   2.291   6.097
 1531SOL     OW16623   7.333   1.837   6.841
 1531SOL    HW116624   7.358   1.875   6.752
 1531SOL    HW216625   7.285   1.750   6.827
 1532SOL     OW16626   5.425   4.614   0.479
 1532SOL    HW116627   5.453   4.604   0.384
 1532SOL    HW216628   5.490   4.565   0.538
 1533SOL     OW16629   7.586   1.055   5.998
 1533SOL    HW116630   7.558   1.128   5.935
 1533SOL    HW216631   7.534   1.063   6.083
 1534SOL     OW16632   8.275   4.443   0.418
 1534SOL    HW116633   8.240   4.511   0.355
 1534SOL    HW216634   8.325   4.372   0.368
 1535SOL     OW16635   0.350   1.416   0.802
 1535SOL    HW116636   0.364   1.508   0.766
 1535SOL    HW216637   0.412   1.352   0.756
 1536SOL     OW16638   2.947   5.427   1.313
 1536SOL    HW116639   3.046   5.430   1.321
 1536SOL    HW216640   2.908   5.507   1.358
 1537SOL     OW16641   6.305   3.333   1.143
 1537SOL    HW116642   6.352   3.414   1.175
 1537SOL    HW216643   6.206   3.349   1.143
 1538SOL     OW16644   4.025   1.382   1.226
 1538SOL    HW116645   4.059   1.390   1.320
 1538SOL    HW216646   3.926   1.369   1.228
 1539SOL     OW16647   8.083   2.881   6.832
 1539SOL    HW116648   8.118   2.960   6.882
 1539SOL    HW216649   8.082   2.901   6.734
 1540SOL     OW16650   5.650   7.642   0.771
 1540SOL    HW116651   5.592   7.686   0.840
 1540SOL    HW216652   5.633   7.544   0.772
 1541SOL     OW16653   8.321   2.506   0.819
 1541SOL    HW116654   8.393   2.570   0.847
 1541SOL    HW216655   8.335   2.481   0.723
 1542SOL     OW16656   4.028   5.015   0.826
 1542SOL    HW116657   4.048   5.059   0.738
 1542SOL    HW216658   4.043   5.080   0.900
 1543SOL     OW16659   2.432   3.962   6.428
 1543SOL    HW116660   2.414   3.957   6.527
 1543SOL    HW216661   2.358   4.014   6.384
 1544SOL     OW16662   5.834   6.039   5.185
 1544SOL    HW116663   5.779   6.116   5.155
 1544SOL    HW216664   5.889   6.005   5.108
 1545SOL     OW16665   7.185   7.728   1.208
 1545SOL    HW116666   7.195   7.777   1.295
 1545SOL    HW216667   7.110   7.662   1.216
 1546SOL     OW16668   4.887   7.735   1.047
 1546SOL    HW116669   4.887   7.819   0.993
 1546SOL    HW216670   4.798   7.690   1.039
 1547SOL     OW16671   5.666   7.920   1.116
 1547SOL    HW116672   5.721   8.000   1.091
 1547SOL    HW216673   5.647   7.921   1.214
 1548SOL     OW16674   7.593   6.152   0.663
 1548SOL    HW116675   7.562   6.075   0.717
 1548SOL    HW216676   7.592   6.127   0.566
 1549SOL     OW16677   6.774   6.153   6.630
 1549SOL    HW116678   6.739   6.069   6.588
 1549SOL    HW216679   6.717   6.231   6.602
 1550SOL     OW16680   7.351   1.090   0.768
 1550SOL    HW116681   7.298   1.175   0.769
 1550SOL    HW216682   7.449   1.113   0.766
 1551SOL     OW16683   1.122   7.282   6.057
 1551SOL    HW116684   1.156   7.221   6.128
 1551SOL    HW216685   1.185   7.360   6.047
 1552SOL     OW16686   0.816   7.636   0.999
 1552SOL    HW116687   0.899   7.644   1.054
 1552SOL    HW216688   0.778   7.544   1.009
 1553SOL     OW16689   1.561   2.378   5.961
 1553SOL    HW116690   1.589   2.318   5.887
 1553SOL    HW216691   1.518   2.460   5.924
 1554SOL     OW16692   4.250   6.192   1.304
 1554SOL    HW116693   4.239   6.171   1.402
 1554SOL    HW216694   4.184   6.139   1.251
 1555SOL     OW16695   8.021   2.069   6.956
 1555SOL    HW116696   8.085   2.146   6.955
 1555SOL    HW216697   8.066   1.989   6.915
 1556SOL     OW16698   3.245   6.034   6.285
 1556SOL    HW116699   3.206   6.054   6.195
 1556SOL    HW216700   3.197   6.086   6.355
 1557SOL     OW16701   9.328   1.520   5.572
 1557SOL    HW116702   9.333   1.421   5.583
 1557SOL    HW216703   9.264   1.542   5.498
 1558SOL     OW16704   0.256   7.064   5.355
 1558SOL    HW116705   0.249   6.989   5.421
 1558SOL    HW216706   0.294   7.029   5.270
 1559SOL     OW16707   1.206   0.324   6.335
 1559SOL    HW116708   1.148   0.315   6.415
 1559SOL    HW216709   1.203   0.240   6.280
 1560SOL     OW16710   4.711   0.434   1.957
 1560SOL    HW116711   4.811   0.441   1.947
 1560SOL    HW216712   4.688   0.437   2.054
 1561SOL     OW16713   1.930   0.544   5.520
 1561SOL    HW116714   1.868   0.502   5.587
 1561SOL    HW216715   2.003   0.592   5.567
 1562SOL     OW16716   1.014   0.419   4.950
 1562SOL    HW116717   0.924   0.405   4.910
 1562SOL    HW216718   1.083   0.424   4.877
 1563SOL     OW16719   0.715   0.837   6.759
 1563SOL    HW116720   0.738   0.813   6.665
 1563SOL    HW216721   0.799   0.857   6.810
 1564SOL     OW16722   8.198   1.124   5.887
 1564SOL    HW116723   8.121   1.067   5.857
 1564SOL    HW216724   8.251   1.153   5.807
 1565SOL     OW16725   5.773   2.940   0.576
 1565SOL    HW116726   5.749   2.859   0.629
 1565SOL    HW216727   5.869   2.934   0.547
 1566SOL     OW16728   5.568   0.374   5.362
 1566SOL    HW116729   5.604   0.401   5.273
 1566SOL    HW216730   5.618   0.423   5.434
 1567SOL     OW16731   2.300   1.812   1.229
 1567SOL    HW116732   2.215   1.802   1.176
 1567SOL    HW216733   2.344   1.898   1.204
 1568SOL     OW16734   5.096   2.202   1.241
 1568SOL    HW116735   4.998   2.202   1.261
 1568SOL    HW216736   5.134   2.112   1.262
 1569SOL     OW16737   9.416   4.319   6.720
 1569SOL    HW116738   9.487   4.328   6.650
 1569SOL    HW216739   9.436   4.239   6.777
 1570SOL     OW16740   6.117   1.967   1.666
 1570SOL    HW116741   6.214   1.951   1.681
 1570SOL    HW216742   6.101   2.064   1.649
 1571SOL     OW16743   7.347   1.197   6.197
 1571SOL    HW116744   7.326   1.256   6.275
 1571SOL    HW216745   7.282   1.216   6.123
 1572SOL     OW16746   1.590   1.413   6.711
 1572SOL    HW116747   1.628   1.360   6.787
 1572SOL    HW216748   1.632   1.383   6.626
 1573SOL     OW16749   3.589   1.222   6.574
 1573SOL    HW116750   3.578   1.320   6.557
 1573SOL    HW216751   3.528   1.171   6.513
 1574SOL     OW16752   7.044   1.522   5.973
 1574SOL    HW116753   6.966   1.518   6.035
 1574SOL    HW216754   7.012   1.534   5.879
 1575SOL     OW16755   6.636   3.421   1.865
 1575SOL    HW116756   6.673   3.477   1.938
 1575SOL    HW216757   6.633   3.325   1.894
 1576SOL     OW16758   1.082   4.279   0.944
 1576SOL    HW116759   1.052   4.365   0.984
 1576SOL    HW216760   1.145   4.233   1.007
 1577SOL     OW16761   6.189   6.351   0.588
 1577SOL    HW116762   6.227   6.440   0.611
 1577SOL    HW216763   6.255   6.279   0.610
 1578SOL     OW16764   1.815   0.238   5.846
 1578SOL    HW116765   1.796   0.205   5.754
 1578SOL    HW216766   1.912   0.228   5.866
 1579SOL     OW16767   4.645   3.287   0.962
 1579SOL    HW116768   4.629   3.374   0.916
 1579SOL    HW216769   4.560   3.234   0.962
 1580SOL     OW16770   8.490   4.208   6.403
 1580SOL    HW116771   8.517   4.113   6.418
 1580SOL    HW216772   8.564   4.257   6.356
 1581SOL     OW16773   8.989   2.327   1.825
 1581SOL    HW116774   8.906   2.286   1.788
 1581SOL    HW216775   9.069   2.292   1.775
 1582SOL     OW16776   0.215   6.773   6.035
 1582SOL    HW116777   0.132   6.763   6.090
 1582SOL    HW216778   0.242   6.869   6.031
 1583SOL     OW16779   7.767   2.697   6.077
 1583SOL    HW116780   7.746   2.600   6.085
 1583SOL    HW216781   7.837   2.710   6.007
 1584SOL     OW16782   4.051   5.139   1.459
 1584SOL    HW116783   4.017   5.231   1.473
 1584SOL    HW216784   3.974   5.075   1.454
 1585SOL     OW16785   4.184   5.099   6.937
 1585SOL    HW116786   4.207   5.103   6.840
 1585SOL    HW216787   4.260   5.057   6.988
 1586SOL     OW16788   7.184   7.300   6.090
 1586SOL    HW116789   7.276   7.332   6.069
 1586SOL    HW216790   7.139   7.364   6.152
 1587SOL     OW16791   7.190   2.034   0.924
 1587SOL    HW116792   7.123   1.963   0.901
 1587SOL    HW216793   7.262   2.035   0.855
 1588SOL     OW16794   7.741   8.075   6.511
 1588SOL    HW116795   7.702   8.061   6.602
 1588SOL    HW216796   7.725   7.993   6.455
 1589SOL     OW16797   3.535   5.172   5.201
 1589SOL    HW116798   3.455   5.154   5.144
 1589SOL    HW216799   3.596   5.236   5.153
 1590SOL     OW16800   0.285   5.444   5.606
 1590SOL    HW116801   0.335   5.387   5.541
 1590SOL    HW216802   0.327   5.437   5.697
 1591SOL     OW16803   6.855   3.082   0.636
 1591SOL    HW116804   6.871   3.079   0.735
 1591SOL    HW216805   6.868   3.175   0.603
 1592SOL     OW16806   5.741   5.737   6.849
 1592SOL    HW116807   5.772   5.736   6.944
 1592SOL    HW216808   5.676   5.662   6.834
 1593SOL     OW16809   6.578   4.478   6.916
 1593SOL    HW116810   6.508   4.486   6.846
 1593SOL    HW216811   6.561   4.544   6.989
 1594SOL     OW16812   3.274   5.239   6.873
 1594SOL    HW116813   3.249   5.190   6.956
 1594SOL    HW216814   3.281   5.175   6.797
 1595SOL     OW16815   4.075   4.076   5.684
 1595SOL    HW116816   4.148   4.046   5.746
 1595SOL    HW216817   4.080   4.022   5.599
 1596SOL     OW16818   5.212   1.952   1.315
 1596SOL    HW116819   5.266   1.876   1.280
 1596SOL    HW216820   5.168   1.926   1.400
 1597SOL     OW16821   0.563   7.046   0.551
 1597SOL    HW116822   0.662   7.035   0.565
 1597SOL    HW216823   0.545   7.061   0.454
 1598SOL     OW16824   6.101   0.202   6.939
 1598SOL    HW116825   6.081   0.105   6.954
 1598SOL    HW216826   6.018   0.248   6.907
 1599SOL     OW16827   6.911   8.371   0.782
 1599SOL    HW116828   6.906   8.272   0.801
 1599SOL    HW216829   6.821   8.403   0.752
 1600SOL     OW16830   3.244   1.046   2.557
 1600SOL    HW116831   3.202   1.041   2.466
 1600SOL    HW216832   3.310   1.121   2.559
 1601SOL     OW16833   2.214   2.379   6.703
 1601SOL    HW116834   2.280   2.454   6.706
 1601SOL    HW216835   2.209   2.342   6.611
 1602SOL     OW16836   2.681   4.584   0.945
 1602SOL    HW116837   2.701   4.667   0.892
 1602SOL    HW216838   2.766   4.535   0.962
 1603SOL     OW16839   5.042   4.328   0.262
 1603SOL    HW116840   5.098   4.266   0.208
 1603SOL    HW216841   5.100   4.392   0.311
 1604SOL     OW16842   9.167   4.385   5.794
 1604SOL    HW116843   9.209   4.434   5.717
 1604SOL    HW216844   9.068   4.379   5.779
 1605SOL     OW16845   0.776   0.813   0.483
 1605SOL    HW116846   0.728   0.725   0.485
 1605SOL    HW216847   0.844   0.815   0.556
 1606SOL     OW16848   4.280   0.675   6.243
 1606SOL    HW116849   4.237   0.683   6.333
 1606SOL    HW216850   4.211   0.682   6.171
 1607SOL     OW16851   0.678   1.731   1.263
 1607SOL    HW116852   0.672   1.785   1.347
 1607SOL    HW216853   0.662   1.634   1.285
 1608SOL     OW16854   3.852   4.954   1.395
 1608SOL    HW116855   3.838   4.913   1.305
 1608SOL    HW216856   3.781   4.923   1.458
 1609SOL     OW16857   1.182   0.622   4.680
 1609SOL    HW116858   1.096   0.673   4.684
 1609SOL    HW216859   1.259   0.687   4.677
 1610SOL     OW16860   1.890   6.934   1.375
 1610SOL    HW116861   1.910   7.023   1.335
 1610SOL    HW216862   1.861   6.946   1.470
 1611SOL     OW16863   3.152   5.630   6.958
 1611SOL    HW116864   3.090   5.689   6.906
 1611SOL    HW216865   3.203   5.571   6.895
 1612SOL     OW16866   3.949   4.565   1.381
 1612SOL    HW116867   3.863   4.518   1.359
 1612SOL    HW216868   3.936   4.622   1.461
 1613SOL     OW16869   3.051   7.635   0.883
 1613SOL    HW116870   3.129   7.691   0.852
 1613SOL    HW216871   3.064   7.541   0.852
 1614SOL     OW16872   0.565   1.144   1.604
 1614SOL    HW116873   0.603   1.068   1.552
 1614SOL    HW216874   0.487   1.111   1.658
 1615SOL     OW16875   3.516   3.477   6.798
 1615SOL    HW116876   3.425   3.511   6.820
 1615SOL    HW216877   3.583   3.549   6.815
 1616SOL     OW16878   5.579   2.311   1.020
 1616SOL    HW116879   5.576   2.376   0.944
 1616SOL    HW216880   5.486   2.285   1.046
 1617SOL     OW16881   3.780   7.809   6.142
 1617SOL    HW116882   3.698   7.752   6.137
 1617SOL    HW216883   3.765   7.882   6.209
 1618SOL     OW16884   6.605   7.256   6.791
 1618SOL    HW116885   6.526   7.204   6.761
 1618SOL    HW216886   6.689   7.213   6.757
 1619SOL     OW16887   3.353   4.912   6.032
 1619SOL    HW116888   3.427   4.848   6.013
 1619SOL    HW216889   3.275   4.864   6.072
 1620SOL     OW16890   0.443   2.823   5.710
 1620SOL    HW116891   0.450   2.831   5.611
 1620SOL    HW216892   0.497   2.895   5.753
 1621SOL     OW16893   5.342   8.211   6.275
 1621SOL    HW116894   5.358   8.127   6.326
 1621SOL    HW216895   5.422   8.233   6.220
 1622SOL     OW16896   4.156   3.959   0.852
 1622SOL    HW116897   4.202   3.872   0.831
 1622SOL    HW216898   4.094   3.982   0.778
 1623SOL     OW16899   9.566   6.697   5.212
 1623SOL    HW116900   9.556   6.634   5.289
 1623SOL    HW216901   9.611   6.649   5.136
 1624SOL     OW16902   0.829   8.265   6.677
 1624SOL    HW116903   0.780   8.179   6.659
 1624SOL    HW216904   0.879   8.256   6.763
 1625SOL     OW16905   3.675  -0.033   0.915
 1625SOL    HW116906   3.744   0.034   0.942
 1625SOL    HW216907   3.719  -0.110   0.870
 1626SOL     OW16908   2.040   0.170   0.551
 1626SOL    HW116909   2.023   0.258   0.506
 1626SOL    HW216910   2.117   0.124   0.507
 1627SOL     OW16911   5.670   2.815   1.277
 1627SOL    HW116912   5.642   2.823   1.372
 1627SOL    HW216913   5.738   2.885   1.256
 1628SOL     OW16914   5.851   0.764   1.695
 1628SOL    HW116915   5.943   0.801   1.683
 1628SOL    HW216916   5.854   0.664   1.696
 1629SOL     OW16917   6.843   2.276   6.600
 1629SOL    HW116918   6.834   2.360   6.653
 1629SOL    HW216919   6.870   2.299   6.506
 1630SOL     OW16920   8.937   3.217   6.297
 1630SOL    HW116921   8.879   3.142   6.266
 1630SOL    HW216922   8.887   3.275   6.362
 1631SOL     OW16923   2.272   3.110   6.762
 1631SOL    HW116924   2.274   3.010   6.752
 1631SOL    HW216925   2.349   3.150   6.714
 1632SOL     OW16926   4.228   0.004   6.560
 1632SOL    HW116927   4.137   0.006   6.601
 1632SOL    HW216928   4.236  -0.076   6.501
 1633SOL     OW16929   4.347   6.745   1.513
 1633SOL    HW116930   4.429   6.736   1.456
 1633SOL    HW216931   4.290   6.818   1.477
 1634SOL     OW16932   1.953   2.574   6.660
 1634SOL    HW116933   2.015   2.527   6.722
 1634SOL    HW216934   1.897   2.640   6.711
 1635SOL     OW16935   0.606   7.662   6.275
 1635SOL    HW116936   0.675   7.725   6.312
 1635SOL    HW216937   0.590   7.682   6.179
 1636SOL     OW16938   3.234   7.940   6.498
 1636SOL    HW116939   3.274   7.853   6.526
 1636SOL    HW216940   3.152   7.923   6.444
 1637SOL     OW16941   6.269   8.285   5.566
 1637SOL    HW116942   6.366   8.308   5.581
 1637SOL    HW216943   6.254   8.270   5.468
 1638SOL     OW16944   2.596   2.599   0.652
 1638SOL    HW116945   2.646   2.684   0.635
 1638SOL    HW216946   2.660   2.527   0.677
 1639SOL     OW16947   3.763   0.871   5.839
 1639SOL    HW116948   3.682   0.886   5.783
 1639SOL    HW216949   3.735   0.841   5.930
 1640SOL     OW16950   1.575   5.034   6.111
 1640SOL    HW116951   1.490   5.023   6.059
 1640SOL    HW216952   1.653   5.006   6.055
 1641SOL     OW16953   6.727   2.052   1.046
 1641SOL    HW116954   6.782   2.134   1.034
 1641SOL    HW216955   6.670   2.037   0.965
 1642SOL     OW16956   2.725   1.822   5.976
 1642SOL    HW116957   2.794   1.760   6.012
 1642SOL    HW216958   2.722   1.814   5.877
 1643SOL     OW16959   7.099   6.982   6.615
 1643SOL    HW116960   7.095   7.072   6.660
 1643SOL    HW216961   7.023   6.974   6.551
 1644SOL     OW16962   7.616   0.365   5.976
 1644SOL    HW116963   7.686   0.437   5.984
 1644SOL    HW216964   7.534   0.393   6.026
 1645SOL     OW16965   9.455   7.921   6.843
 1645SOL    HW116966   9.460   7.955   6.937
 1645SOL    HW216967   9.455   7.999   6.780
 1646SOL     OW16968   0.341   0.695   6.234
 1646SOL    HW116969   0.292   0.723   6.316
 1646SOL    HW216970   0.425   0.749   6.225
 1647SOL     OW16971   1.615   2.958   6.215
 1647SOL    HW116972   1.651   3.040   6.171
 1647SOL    HW216973   1.685   2.886   6.212
 1648SOL     OW16974   4.023   8.018   0.927
 1648SOL    HW116975   4.080   8.064   0.858
 1648SOL    HW216976   3.927   8.020   0.897
 1649SOL     OW16977   0.482   5.974   6.326
 1649SOL    HW116978   0.417   5.900   6.311
 1649SOL    HW216979   0.561   5.939   6.377
 1650SOL     OW16980   3.406   5.374   6.195
 1650SOL    HW116981   3.482   5.435   6.176
 1650SOL    HW216982   3.407   5.297   6.131
 1651SOL     OW16983   5.626   4.815   1.886
 1651SOL    HW116984   5.643   4.827   1.984
 1651SOL    HW216985   5.529   4.830   1.866
 1652SOL     OW16986   5.806   8.426   0.761
 1652SOL    HW116987   5.718   8.459   0.726
 1652SOL    HW216988   5.863   8.398   0.684
 1653SOL     OW16989   0.798   6.766   6.414
 1653SOL    HW116990   0.813   6.747   6.317
 1653SOL    HW216991   0.701   6.777   6.432
 1654SOL     OW16992   6.516   5.058   4.957
 1654SOL    HW116993   6.608   5.020   4.960
 1654SOL    HW216994   6.449   4.984   4.953
 1655SOL     OW16995   4.076   1.459   2.215
 1655SOL    HW116996   4.061   1.375   2.163
 1655SOL    HW216997   4.066   1.440   2.312
 1656SOL     OW16998   5.680   8.117   0.783
 1656SOL    HW116999   5.583   8.100   0.801
 1656SOL    HW217000   5.713   8.188   0.846
 1657SOL     OW17001   4.328   6.929   5.246
 1657SOL    HW117002   4.333   7.025   5.219
 1657SOL    HW217003   4.236   6.894   5.228
 1658SOL     OW17004   0.964   7.760   5.888
 1658SOL    HW117005   0.962   7.757   5.988
 1658SOL    HW217006   0.871   7.759   5.852
 1659SOL     OW17007   0.592   3.240   6.879
 1659SOL    HW117008   0.536   3.323   6.888
 1659SOL    HW217009   0.582   3.185   6.962
 1660SOL     OW17010   8.106   7.434   6.404
 1660SOL    HW117011   8.076   7.467   6.314
 1660SOL    HW217012   8.052   7.354   6.429
 1661SOL     OW17013   4.974   2.684   1.077
 1661SOL    HW117014   5.000   2.731   0.993
 1661SOL    HW217015   4.880   2.649   1.068
 1662SOL     OW17016   3.723   6.989   0.269
 1662SOL    HW117017   3.700   6.986   0.366
 1662SOL    HW217018   3.817   7.020   0.257
 1663SOL     OW17019   9.594   4.016   1.116
 1663SOL    HW117020   9.580   4.029   1.214
 1663SOL    HW217021   9.505   4.002   1.072
 1664SOL     OW17022   5.979   1.041   6.519
 1664SOL    HW117023   6.018   1.008   6.605
 1664SOL    HW217024   5.952   1.137   6.529
 1665SOL     OW17025   3.481   0.762   0.288
 1665SOL    HW117026   3.528   0.677   0.308
 1665SOL    HW217027   3.513   0.798   0.200
 1666SOL     OW17028   4.763   8.355   0.845
 1666SOL    HW117029   4.801   8.313   0.928
 1666SOL    HW217030   4.812   8.320   0.765
 1667SOL     OW17031   7.229   8.050   5.458
 1667SOL    HW117032   7.314   8.096   5.432
 1667SOL    HW217033   7.167   8.115   5.500
 1668SOL     OW17034   6.346   6.372   5.670
 1668SOL    HW117035   6.289   6.290   5.675
 1668SOL    HW217036   6.346   6.408   5.577
 1669SOL     OW17037   5.949   1.627   1.852
 1669SOL    HW117038   5.944   1.530   1.875
 1669SOL    HW217039   5.882   1.677   1.907
 1670SOL     OW17040   5.912   0.150   0.494
 1670SOL    HW117041   5.820   0.164   0.531
 1670SOL    HW217042   5.968   0.230   0.516
 1671SOL     OW17043   2.461   3.743   1.228
 1671SOL    HW117044   2.488   3.813   1.293
 1671SOL    HW217045   2.411   3.785   1.152
 1672SOL     OW17046   7.560   6.088   0.397
 1672SOL    HW117047   7.635   6.023   0.401
 1672SOL    HW217048   7.571   6.147   0.317
 1673SOL     OW17049   6.613   1.050   2.208
 1673SOL    HW117050   6.613   0.982   2.282
 1673SOL    HW217051   6.627   1.004   2.120
 1674SOL     OW17052   7.815   6.319   0.493
 1674SOL    HW117053   7.768   6.352   0.575
 1674SOL    HW217054   7.859   6.396   0.446
 1675SOL     OW17055   9.217   0.891   0.358
 1675SOL    HW117056   9.288   0.835   0.400
 1675SOL    HW217057   9.204   0.864   0.263
 1676SOL     OW17058   6.104   0.142   5.083
 1676SOL    HW117059   6.147   0.123   5.171
 1676SOL    HW217060   6.152   0.218   5.039
 1677SOL     OW17061   5.448   3.779   6.608
 1677SOL    HW117062   5.423   3.863   6.658
 1677SOL    HW217063   5.509   3.724   6.665
 1678SOL     OW17064   9.195   4.527   6.678
 1678SOL    HW117065   9.263   4.458   6.701
 1678SOL    HW217066   9.228   4.617   6.706
 1679SOL     OW17067   9.295   4.748   6.814
 1679SOL    HW117068   9.226   4.814   6.788
 1679SOL    HW217069   9.378   4.795   6.843
 1680SOL     OW17070   5.412   2.655   0.700
 1680SOL    HW117071   5.355   2.664   0.619
 1680SOL    HW217072   5.431   2.746   0.738
 1681SOL     OW17073   6.049   1.346   2.251
 1681SOL    HW117074   6.087   1.277   2.189
 1681SOL    HW217075   6.088   1.435   2.227
 1682SOL     OW17076   0.228   6.977   1.524
 1682SOL    HW117077   0.177   6.908   1.576
 1682SOL    HW217078   0.211   6.964   1.427
 1683SOL     OW17079   5.468   2.998   0.480
 1683SOL    HW117080   5.503   3.092   0.478
 1683SOL    HW217081   5.545   2.935   0.483
 1684SOL     OW17082   9.199   4.402   6.380
 1684SOL    HW117083   9.225   4.352   6.298
 1684SOL    HW217084   9.251   4.487   6.385
 1685SOL     OW17085   3.954   6.302   2.538
 1685SOL    HW117086   3.938   6.400   2.550
 1685SOL    HW217087   3.874   6.251   2.569
 1686SOL     OW17088   8.628   2.825   6.712
 1686SOL    HW117089   8.589   2.846   6.801
 1686SOL    HW217090   8.619   2.728   6.693
 1687SOL     OW17091   5.827   2.831   6.154
 1687SOL    HW117092   5.846   2.768   6.229
 1687SOL    HW217093   5.777   2.910   6.190
 1688SOL     OW17094   8.654   1.033   6.715
 1688SOL    HW117095   8.618   0.969   6.782
 1688SOL    HW217096   8.627   1.004   6.623
 1689SOL     OW17097   0.358   0.085   6.020
 1689SOL    HW117098   0.422   0.069   6.096
 1689SOL    HW217099   0.398   0.151   5.957
 1690SOL     OW17100   6.169   2.662   6.293
 1690SOL    HW117101   6.143   2.602   6.217
 1690SOL    HW217102   6.232   2.613   6.354
 1691SOL     OW17103   4.943   5.249   1.013
 1691SOL    HW117104   4.925   5.188   0.936
 1691SOL    HW217105   4.938   5.344   0.981
 1692SOL     OW17106   0.498   5.749   5.610
 1692SOL    HW117107   0.525   5.674   5.550
 1692SOL    HW217108   0.549   5.832   5.586
 1693SOL     OW17109   6.274   1.047   0.788
 1693SOL    HW117110   6.216   1.018   0.712
 1693SOL    HW217111   6.296   1.145   0.778
 1694SOL     OW17112   1.137   5.598   6.473
 1694SOL    HW117113   1.205   5.633   6.538
 1694SOL    HW217114   1.160   5.629   6.381
 1695SOL     OW17115   7.668   1.242   1.088
 1695SOL    HW117116   7.608   1.252   1.168
 1695SOL    HW217117   7.755   1.202   1.116
 1696SOL     OW17118   6.639   4.853   6.665
 1696SOL    HW117119   6.618   4.946   6.635
 1696SOL    HW217120   6.594   4.835   6.752
 1697SOL     OW17121   5.433   1.439   0.517
 1697SOL    HW117122   5.437   1.502   0.440
 1697SOL    HW217123   5.491   1.360   0.499
 1698SOL     OW17124   3.825   7.121   6.391
 1698SOL    HW117125   3.747   7.071   6.355
 1698SOL    HW217126   3.794   7.187   6.460
 1699SOL     OW17127   8.135   6.556   6.630
 1699SOL    HW117128   8.186   6.514   6.555
 1699SOL    HW217129   8.054   6.602   6.593
 1700SOL     OW17130   3.760   7.808   1.167
 1700SOL    HW117131   3.699   7.865   1.221
 1700SOL    HW217132   3.847   7.797   1.215
 1701SOL     OW17133   1.072   6.514   5.842
 1701SOL    HW117134   1.035   6.606   5.857
 1701SOL    HW217135   1.165   6.521   5.805
 1702SOL     OW17136   3.102   6.081   1.326
 1702SOL    HW117137   3.044   6.106   1.404
 1702SOL    HW217138   3.063   6.117   1.242
 1703SOL     OW17139   0.765   2.779   6.655
 1703SOL    HW117140   0.693   2.784   6.725
 1703SOL    HW217141   0.807   2.689   6.657
 1704SOL     OW17142   2.640   6.761   0.730
 1704SOL    HW117143   2.719   6.729   0.784
 1704SOL    HW217144   2.615   6.853   0.759
 1705SOL     OW17145   2.784   0.311   6.024
 1705SOL    HW117146   2.822   0.291   6.114
 1705SOL    HW217147   2.753   0.406   6.020
 1706SOL     OW17148   5.543   1.808   6.735
 1706SOL    HW117149   5.637   1.814   6.701
 1706SOL    HW217150   5.484   1.771   6.663
 1707SOL     OW17151   0.558   5.862   0.452
 1707SOL    HW117152   0.559   5.767   0.419
 1707SOL    HW217153   0.576   5.863   0.550
 1708SOL     OW17154   3.890   1.588   1.584
 1708SOL    HW117155   3.972   1.620   1.537
 1708SOL    HW217156   3.915   1.523   1.656
 1709SOL     OW17157   9.190   8.357   6.850
 1709SOL    HW117158   9.192   8.351   6.949
 1709SOL    HW217159   9.204   8.452   6.821
 1710SOL     OW17160   0.234   7.849   0.250
 1710SOL    HW117161   0.180   7.900   0.183
 1710SOL    HW217162   0.247   7.755   0.219
 1711SOL     OW17163   4.910   1.178   1.491
 1711SOL    HW117164   4.899   1.080   1.473
 1711SOL    HW217165   4.980   1.191   1.561
 1712SOL     OW17166   2.770   3.187   0.711
 1712SOL    HW117167   2.861   3.204   0.674
 1712SOL    HW217168   2.730   3.273   0.743
 1713SOL     OW17169   2.070   1.465   1.160
 1713SOL    HW117170   2.057   1.374   1.122
 1713SOL    HW217171   2.167   1.483   1.173
 1714SOL     OW17172   3.518   3.537   6.533
 1714SOL    HW117173   3.514   3.519   6.631
 1714SOL    HW217174   3.611   3.524   6.501
 1715SOL     OW17175   8.005   5.024   5.524
 1715SOL    HW117176   7.994   5.087   5.601
 1715SOL    HW217177   7.975   4.932   5.551
 1716SOL     OW17178   0.120   6.733   0.450
 1716SOL    HW117179   0.138   6.821   0.495
 1716SOL    HW217180   0.109   6.747   0.352
 1717SOL     OW17181   4.632   4.601   6.161
 1717SOL    HW117182   4.601   4.647   6.245
 1717SOL    HW217183   4.573   4.523   6.143
 1718SOL     OW17184   3.165   0.881   6.487
 1718SOL    HW117185   3.141   0.922   6.575
 1718SOL    HW217186   3.107   0.801   6.470
 1719SOL     OW17187   3.763   1.335   0.517
 1719SOL    HW117188   3.780   1.318   0.614
 1719SOL    HW217189   3.682   1.392   0.506
 1720SOL     OW17190   3.943   7.422   6.967
 1720SOL    HW117191   4.006   7.482   7.017
 1720SOL    HW217192   3.977   7.328   6.971
 1721SOL     OW17193   2.083   0.775   1.242
 1721SOL    HW117194   2.045   0.767   1.150
 1721SOL    HW217195   2.082   0.871   1.270
 1722SOL     OW17196   0.386   6.080   5.829
 1722SOL    HW117197   0.301   6.041   5.865
 1722SOL    HW217198   0.450   6.095   5.904
 1723SOL     OW17199   0.957   6.101   0.262
 1723SOL    HW117200   1.005   6.080   0.177
 1723SOL    HW217201   0.859   6.102   0.245
 1724SOL     OW17202   7.326  -0.045   5.782
 1724SOL    HW117203   7.298  -0.044   5.686
 1724SOL    HW217204   7.272   0.023   5.833
 1725SOL     OW17205   2.693   2.119   1.259
 1725SOL    HW117206   2.766   2.176   1.295
 1725SOL    HW217207   2.722   2.023   1.261
 1726SOL     OW17208   3.550   1.609   0.267
 1726SOL    HW117209   3.549   1.518   0.224
 1726SOL    HW217210   3.585   1.676   0.201
 1727SOL     OW17211   0.872   5.983   0.892
 1727SOL    HW117212   0.929   6.049   0.842
 1727SOL    HW217213   0.909   5.891   0.878
 1728SOL     OW17214   3.688   5.872   1.360
 1728SOL    HW117215   3.606   5.902   1.311
 1728SOL    HW217216   3.700   5.774   1.347
 1729SOL     OW17217   5.441   2.002   6.002
 1729SOL    HW117218   5.529   2.034   6.037
 1729SOL    HW217219   5.409   2.065   5.931
 1730SOL     OW17220   4.265   7.558   6.553
 1730SOL    HW117221   4.278   7.583   6.648
 1730SOL    HW217222   4.186   7.497   6.545
 1731SOL     OW17223   4.290   5.515   5.470
 1731SOL    HW117224   4.222   5.582   5.441
 1731SOL    HW217225   4.335   5.477   5.389
 1732SOL     OW17226   6.514   1.541   0.913
 1732SOL    HW117227   6.533   1.625   0.964
 1732SOL    HW217228   6.530   1.462   0.972
 1733SOL     OW17229   7.530   6.236   1.364
 1733SOL    HW117230   7.554   6.230   1.461
 1733SOL    HW217231   7.439   6.276   1.354
 1734SOL     OW17232   1.484   7.012   6.583
 1734SOL    HW117233   1.584   7.006   6.577
 1734SOL    HW217234   1.459   7.073   6.658
 1735SOL     OW17235   9.540   8.357   0.339
 1735SOL    HW117236   9.466   8.400   0.287
 1735SOL    HW217237   9.626   8.370   0.290
 1736SOL     OW17238   8.003   7.371   5.491
 1736SOL    HW117239   8.077   7.430   5.459
 1736SOL    HW217240   7.929   7.428   5.527
 1737SOL     OW17241   2.617   2.969   0.731
 1737SOL    HW117242   2.647   2.916   0.652
 1737SOL    HW217243   2.680   3.046   0.745
 1738SOL     OW17244   3.566   1.090   0.875
 1738SOL    HW117245   3.637   1.107   0.806
 1738SOL    HW217246   3.609   1.072   0.963
 1739SOL     OW17247   7.873   0.547   5.096
 1739SOL    HW117248   7.808   0.606   5.048
 1739SOL    HW217249   7.966   0.575   5.075
 1740SOL     OW17250   7.137   0.665   5.857
 1740SOL    HW117251   7.136   0.765   5.846
 1740SOL    HW217252   7.231   0.633   5.861
 1741SOL     OW17253   0.276   2.196   6.161
 1741SOL    HW117254   0.246   2.152   6.246
 1741SOL    HW217255   0.273   2.295   6.172
 1742SOL     OW17256   4.235   5.844   6.514
 1742SOL    HW117257   4.266   5.771   6.453
 1742SOL    HW217258   4.302   5.855   6.588
 1743SOL     OW17259   1.039   1.266   0.926
 1743SOL    HW117260   0.951   1.284   0.881
 1743SOL    HW217261   1.045   1.169   0.950
 1744SOL     OW17262   4.204   7.909   2.413
 1744SOL    HW117263   4.162   7.901   2.503
 1744SOL    HW217264   4.153   7.974   2.357
 1745SOL     OW17265   5.542   6.226   1.788
 1745SOL    HW117266   5.573   6.296   1.853
 1745SOL    HW217267   5.603   6.226   1.708
 1746SOL     OW17268   7.088   8.296   5.401
 1746SOL    HW117269   7.012   8.358   5.384
 1746SOL    HW217270   7.110   8.247   5.316
 1747SOL     OW17271   4.661   0.516   0.786
 1747SOL    HW117272   4.628   0.443   0.846
 1747SOL    HW217273   4.668   0.601   0.839
 1748SOL     OW17274   0.705   7.355   1.014
 1748SOL    HW117275   0.740   7.279   0.960
 1748SOL    HW217276   0.606   7.345   1.025
 1749SOL     OW17277   4.698   4.097   6.150
 1749SOL    HW117278   4.695   4.026   6.220
 1749SOL    HW217279   4.613   4.094   6.096
 1750SOL     OW17280   6.070   5.441   1.220
 1750SOL    HW117281   6.001   5.483   1.160
 1750SOL    HW217282   6.042   5.452   1.315
 1751SOL     OW17283   9.420   7.816   5.222
 1751SOL    HW117284   9.370   7.808   5.136
 1751SOL    HW217285   9.480   7.896   5.218
 1752SOL     OW17286   1.230   6.128   5.778
 1752SOL    HW117287   1.190   6.107   5.867
 1752SOL    HW217288   1.303   6.196   5.789
 1753SOL     OW17289   5.907   8.368   0.497
 1753SOL    HW117290   5.908   8.467   0.481
 1753SOL    HW217291   5.932   8.320   0.413
 1754SOL     OW17292   4.934   4.269   6.359
 1754SOL    HW117293   4.980   4.186   6.392
 1754SOL    HW217294   4.844   4.245   6.324
 1755SOL     OW17295   7.174   7.686   0.473
 1755SOL    HW117296   7.082   7.660   0.443
 1755SOL    HW217297   7.240   7.662   0.402
 1756SOL     OW17298   0.564   8.186   0.671
 1756SOL    HW117299   0.609   8.140   0.594
 1756SOL    HW217300   0.607   8.156   0.756
 1757SOL     OW17301   7.947   4.363   6.534
 1757SOL    HW117302   8.002   4.421   6.475
 1757SOL    HW217303   7.851   4.391   6.528
 1758SOL     OW17304   3.821   6.239   0.985
 1758SOL    HW117305   3.741   6.260   1.041
 1758SOL    HW217306   3.878   6.172   1.032
 1759SOL     OW17307   2.315   4.680   0.544
 1759SOL    HW117308   2.270   4.621   0.611
 1759SOL    HW217309   2.407   4.645   0.525
 1760SOL     OW17310   5.344   8.227   1.100
 1760SOL    HW117311   5.277   8.223   1.026
 1760SOL    HW217312   5.427   8.177   1.074
 1761SOL     OW17313   6.815   3.094   6.796
 1761SOL    HW117314   6.735   3.081   6.854
 1761SOL    HW217315   6.898   3.082   6.852
 1762SOL     OW17316   0.653   6.694   4.702
 1762SOL    HW117317   0.734   6.636   4.715
 1762SOL    HW217318   0.575   6.637   4.678
 1763SOL     OW17319   0.945   6.483   0.639
 1763SOL    HW117320   0.887   6.557   0.604
 1763SOL    HW217321   1.025   6.522   0.684
 1764SOL     OW17322   1.361   2.393   6.131
 1764SOL    HW117323   1.340   2.476   6.182
 1764SOL    HW217324   1.446   2.406   6.079
 1765SOL     OW17325   5.672   5.520   6.575
 1765SOL    HW117326   5.683   5.513   6.476
 1765SOL    HW217327   5.658   5.429   6.614
 1766SOL     OW17328   3.390   3.145   0.500
 1766SOL    HW117329   3.487   3.133   0.476
 1766SOL    HW217330   3.335   3.135   0.417
 1767SOL     OW17331   4.899   6.042   6.124
 1767SOL    HW117332   4.886   6.064   6.027
 1767SOL    HW217333   4.972   6.100   6.161
 1768SOL     OW17334   1.475   6.162   1.576
 1768SOL    HW117335   1.399   6.220   1.545
 1768SOL    HW217336   1.473   6.075   1.526
 1769SOL     OW17337   2.778   4.197   0.860
 1769SOL    HW117338   2.772   4.186   0.959
 1769SOL    HW217339   2.790   4.108   0.817
 1770SOL     OW17340   9.124   2.189   5.569
 1770SOL    HW117341   9.119   2.289   5.565
 1770SOL    HW217342   9.146   2.160   5.662
 1771SOL     OW17343   9.435   3.476   1.173
 1771SOL    HW117344   9.363   3.426   1.222
 1771SOL    HW217345   9.413   3.573   1.172
 1772SOL     OW17346   3.750   2.415   6.581
 1772SOL    HW117347   3.768   2.508   6.614
 1772SOL    HW217348   3.826   2.384   6.524
 1773SOL     OW17349   3.267   4.996   0.907
 1773SOL    HW117350   3.287   4.898   0.913
 1773SOL    HW217351   3.184   5.016   0.959
 1774SOL     OW17352   2.885   7.927   6.508
 1774SOL    HW117353   2.810   7.863   6.494
 1774SOL    HW217354   2.880   7.963   6.601
 1775SOL     OW17355   7.899   3.839   0.685
 1775SOL    HW117356   7.913   3.919   0.628
 1775SOL    HW217357   7.801   3.820   0.694
 1776SOL     OW17358   0.391   0.686   6.575
 1776SOL    HW117359   0.432   0.650   6.659
 1776SOL    HW217360   0.459   0.684   6.502
 1777SOL     OW17361   3.608   1.374   6.876
 1777SOL    HW117362   3.694   1.402   6.833
 1777SOL    HW217363   3.616   1.279   6.906
 1778SOL     OW17364   2.657   0.584   0.375
 1778SOL    HW117365   2.703   0.640   0.445
 1778SOL    HW217366   2.725   0.543   0.315
 1779SOL     OW17367   5.246   5.811   6.607
 1779SOL    HW117368   5.212   5.891   6.656
 1779SOL    HW217369   5.192   5.731   6.632
 1780SOL     OW17370   8.670   6.466   5.149
 1780SOL    HW117371   8.665   6.378   5.102
 1780SOL    HW217372   8.614   6.533   5.100
 1781SOL     OW17373   9.432   0.517   5.801
 1781SOL    HW117374   9.504   0.517   5.733
 1781SOL    HW217375   9.343   0.531   5.757
 1782SOL     OW17376   8.621   0.894   0.871
 1782SOL    HW117377   8.691   0.890   0.943
 1782SOL    HW217378   8.540   0.941   0.906
 1783SOL     OW17379   8.490   6.581   0.788
 1783SOL    HW117380   8.560   6.614   0.852
 1783SOL    HW217381   8.422   6.653   0.774
 1784SOL     OW17382   6.010   7.117   0.730
 1784SOL    HW117383   5.991   7.019   0.727
 1784SOL    HW217384   5.955   7.164   0.662
 1785SOL     OW17385   8.013   3.340   1.315
 1785SOL    HW117386   8.028   3.244   1.291
 1785SOL    HW217387   7.917   3.354   1.340
 1786SOL     OW17388   6.966   5.874   6.141
 1786SOL    HW117389   6.985   5.923   6.056
 1786SOL    HW217390   6.867   5.868   6.156
 1787SOL     OW17391   6.596   6.379   1.372
 1787SOL    HW117392   6.539   6.458   1.350
 1787SOL    HW217393   6.581   6.352   1.467
 1788SOL     OW17394   2.677   8.231   6.547
 1788SOL    HW117395   2.616   8.198   6.618
 1788SOL    HW217396   2.768   8.249   6.586
 1789SOL     OW17397   7.762   1.926   6.830
 1789SOL    HW117398   7.803   1.842   6.794
 1789SOL    HW217399   7.819   2.004   6.804
 1790SOL     OW17400   0.805   7.426   5.163
 1790SOL    HW117401   0.743   7.363   5.208
 1790SOL    HW217402   0.849   7.485   5.231
 1791SOL     OW17403   4.662   5.187   0.339
 1791SOL    HW117404   4.579   5.163   0.390
 1791SOL    HW217405   4.682   5.115   0.272
 1792SOL     OW17406   0.430   2.079   6.550
 1792SOL    HW117407   0.408   2.020   6.473
 1792SOL    HW217408   0.519   2.122   6.534
 1793SOL     OW17409   1.128   6.786   0.687
 1793SOL    HW117410   1.133   6.696   0.729
 1793SOL    HW217411   1.204   6.842   0.720
 1794SOL     OW17412   1.603   0.080   0.951
 1794SOL    HW117413   1.635   0.054   1.042
 1794SOL    HW217414   1.682   0.092   0.890
 1795SOL     OW17415   2.582   5.427   0.848
 1795SOL    HW117416   2.669   5.381   0.830
 1795SOL    HW217417   2.533   5.440   0.762
 1796SOL     OW17418   1.371   3.057   5.659
 1796SOL    HW117419   1.392   3.077   5.563
 1796SOL    HW217420   1.431   3.112   5.717
 1797SOL     OW17421   0.378   6.808   6.915
 1797SOL    HW117422   0.392   6.749   6.995
 1797SOL    HW217423   0.280   6.814   6.895
 1798SOL     OW17424   2.759   5.096   6.378
 1798SOL    HW117425   2.674   5.066   6.421
 1798SOL    HW217426   2.761   5.195   6.371
 1799SOL     OW17427   7.714   6.041   5.406
 1799SOL    HW117428   7.649   6.114   5.423
 1799SOL    HW217429   7.773   6.065   5.329
 1800SOL     OW17430   4.282   0.069   1.703
 1800SOL    HW117431   4.249  -0.023   1.684
 1800SOL    HW217432   4.334   0.069   1.788
 1801SOL     OW17433   4.273   5.087   1.034
 1801SOL    HW117434   4.331   5.056   0.959
 1801SOL    HW217435   4.221   5.167   1.004
 1802SOL     OW17436   1.173   3.728   5.152
 1802SOL    HW117437   1.201   3.813   5.106
 1802SOL    HW217438   1.158   3.657   5.083
 1803SOL     OW17439   1.416   5.591   5.518
 1803SOL    HW117440   1.369   5.669   5.558
 1803SOL    HW217441   1.402   5.592   5.418
 1804SOL     OW17442   8.448   1.113   5.700
 1804SOL    HW117443   8.500   1.069   5.627
 1804SOL    HW217444   8.450   1.212   5.688
 1805SOL     OW17445   4.638   4.855   5.874
 1805SOL    HW117446   4.719   4.799   5.855
 1805SOL    HW217447   4.559   4.815   5.827
 1806SOL     OW17448   6.646   6.115   6.095
 1806SOL    HW117449   6.656   6.020   6.065
 1806SOL    HW217450   6.700   6.175   6.036
 1807SOL     OW17451   0.697   8.105   0.878
 1807SOL    HW117452   0.636   8.132   0.953
 1807SOL    HW217453   0.782   8.069   0.916
 1808SOL     OW17454   4.493   8.186   6.626
 1808SOL    HW117455   4.532   8.136   6.548
 1808SOL    HW217456   4.561   8.250   6.662
 1809SOL     OW17457   2.288   0.491   1.616
 1809SOL    HW117458   2.287   0.580   1.661
 1809SOL    HW217459   2.200   0.446   1.628
 1810SOL     OW17460   4.586   4.743   6.750
 1810SOL    HW117461   4.525   4.787   6.684
 1810SOL    HW217462   4.677   4.733   6.710
 1811SOL     OW17463   1.714   4.154   5.739
 1811SOL    HW117464   1.680   4.246   5.760
 1811SOL    HW217465   1.779   4.159   5.663
 1812SOL     OW17466   9.026   3.371   1.789
 1812SOL    HW117467   9.113   3.323   1.801
 1812SOL    HW217468   9.002   3.419   1.874
 1813SOL     OW17469   7.322   6.065   1.491
 1813SOL    HW117470   7.404   6.029   1.448
 1813SOL    HW217471   7.341   6.155   1.529
 1814SOL     OW17472   4.484  -0.060   6.284
 1814SOL    HW117473   4.399  -0.073   6.335
 1814SOL    HW217474   4.485  -0.120   6.204
 1815SOL     OW17475   7.636   5.223   5.219
 1815SOL    HW117476   7.597   5.286   5.152
 1815SOL    HW217477   7.707   5.269   5.272
 1816SOL     OW17478   7.096   3.102   5.707
 1816SOL    HW117479   7.080   3.011   5.668
 1816SOL    HW217480   7.148   3.157   5.642
 1817SOL     OW17481   0.170   3.894   1.586
 1817SOL    HW117482   0.260   3.849   1.592
 1817SOL    HW217483   0.137   3.915   1.677
 1818SOL     OW17484   2.410   5.489   6.270
 1818SOL    HW117485   2.393   5.402   6.316
 1818SOL    HW217486   2.441   5.557   6.337
 1819SOL     OW17487   4.984   8.100   5.903
 1819SOL    HW117488   4.982   8.028   5.833
 1819SOL    HW217489   5.062   8.084   5.964
 1820SOL     OW17490   2.356   2.193   0.433
 1820SOL    HW117491   2.387   2.279   0.393
 1820SOL    HW217492   2.428   2.124   0.424
 1821SOL     OW17493   9.303   3.241   6.294
 1821SOL    HW117494   9.374   3.181   6.331
 1821SOL    HW217495   9.280   3.211   6.201
 1822SOL     OW17496   2.847   4.570   6.897
 1822SOL    HW117497   2.890   4.568   6.807
 1822SOL    HW217498   2.799   4.484   6.913
 1823SOL     OW17499   3.685   4.374   2.055
 1823SOL    HW117500   3.593   4.404   2.079
 1823SOL    HW217501   3.725   4.325   2.132
 1824SOL     OW17502   8.701   3.624   6.326
 1824SOL    HW117503   8.627   3.648   6.263
 1824SOL    HW217504   8.691   3.678   6.410
 1825SOL     OW17505   4.937   1.909   6.399
 1825SOL    HW117506   5.037   1.912   6.390
 1825SOL    HW217507   4.913   1.918   6.496
 1826SOL     OW17508   2.468   4.655   1.121
 1826SOL    HW117509   2.541   4.670   1.055
 1826SOL    HW217510   2.398   4.596   1.081
 1827SOL     OW17511   7.541   1.220   1.375
 1827SOL    HW117512   7.549   1.128   1.335
 1827SOL    HW217513   7.522   1.212   1.473
 1828SOL     OW17514   1.932   2.058   0.316
 1828SOL    HW117515   1.930   2.062   0.416
 1828SOL    HW217516   1.852   2.105   0.279
 1829SOL     OW17517   6.251   7.345   5.557
 1829SOL    HW117518   6.164   7.305   5.584
 1829SOL    HW217519   6.257   7.347   5.457
 1830SOL     OW17520   0.620   1.864   5.424
 1830SOL    HW117521   0.699   1.847   5.366
 1830SOL    HW217522   0.549   1.911   5.372
 1831SOL     OW17523   3.710   7.073   1.550
 1831SOL    HW117524   3.619   7.107   1.573
 1831SOL    HW217525   3.772   7.150   1.537
 1832SOL     OW17526   1.106   3.710   6.041
 1832SOL    HW117527   1.181   3.735   6.102
 1832SOL    HW217528   1.036   3.781   6.044
 1833SOL     OW17529   3.787   6.207   1.932
 1833SOL    HW117530   3.701   6.257   1.932
 1833SOL    HW217531   3.769   6.110   1.915
 1834SOL     OW17532   1.493   6.562   5.108
 1834SOL    HW117533   1.586   6.564   5.145
 1834SOL    HW217534   1.487   6.623   5.029
 1835SOL     OW17535   4.136   1.539   1.010
 1835SOL    HW117536   4.086   1.486   1.078
 1835SOL    HW217537   4.102   1.633   1.009
 1836SOL     OW17538   6.051   4.750   6.240
 1836SOL    HW117539   6.023   4.818   6.307
 1836SOL    HW217540   6.148   4.728   6.252
 1837SOL     OW17541   1.502   8.382   1.321
 1837SOL    HW117542   1.456   8.294   1.309
 1837SOL    HW217543   1.434   8.455   1.329
 1838SOL     OW17544   0.753   0.377   0.733
 1838SOL    HW117545   0.765   0.411   0.826
 1838SOL    HW217546   0.667   0.326   0.727
 1839SOL     OW17547   9.527   1.704   0.866
 1839SOL    HW117548   9.432   1.729   0.846
 1839SOL    HW217549   9.567   1.659   0.786
 1840SOL     OW17550   9.238   2.395   6.559
 1840SOL    HW117551   9.288   2.477   6.588
 1840SOL    HW217552   9.199   2.350   6.640
 1841SOL     OW17553   6.251   7.703   1.094
 1841SOL    HW117554   6.317   7.647   1.145
 1841SOL    HW217555   6.184   7.742   1.157
 1842SOL     OW17556   0.141   1.100   6.713
 1842SOL    HW117557   0.192   1.186   6.704
 1842SOL    HW217558   0.201   1.029   6.749
 1843SOL     OW17559   1.032   5.597   5.333
 1843SOL    HW117560   1.054   5.685   5.292
 1843SOL    HW217561   1.038   5.604   5.433
 1844SOL     OW17562   3.658   3.289   6.931
 1844SOL    HW117563   3.677   3.339   7.016
 1844SOL    HW217564   3.586   3.337   6.880
 1845SOL     OW17565   2.637   6.955   5.210
 1845SOL    HW117566   2.597   6.870   5.177
 1845SOL    HW217567   2.636   7.023   5.136
 1846SOL     OW17568   6.814   5.084   1.019
 1846SOL    HW117569   6.862   5.094   1.106
 1846SOL    HW217570   6.718   5.113   1.030
 1847SOL     OW17571   9.465   3.166   0.369
 1847SOL    HW117572   9.430   3.137   0.458
 1847SOL    HW217573   9.478   3.087   0.310
 1848SOL     OW17574   8.092   6.947   0.456
 1848SOL    HW117575   8.006   6.910   0.421
 1848SOL    HW217576   8.075   7.034   0.502
 1849SOL     OW17577   9.495   2.430   1.316
 1849SOL    HW117578   9.536   2.360   1.257
 1849SOL    HW217579   9.440   2.385   1.386
 1850SOL     OW17580   5.931   4.987   1.120
 1850SOL    HW117581   6.002   5.004   1.052
 1850SOL    HW217582   5.870   4.915   1.087
 1851SOL     OW17583   5.152   0.322   6.229
 1851SOL    HW117584   5.143   0.354   6.324
 1851SOL    HW217585   5.063   0.287   6.198
 1852SOL     OW17586   6.452   5.015   6.167
 1852SOL    HW117587   6.524   5.022   6.098
 1852SOL    HW217588   6.487   4.968   6.247
 1853SOL     OW17589   4.385   6.289   2.350
 1853SOL    HW117590   4.436   6.373   2.333
 1853SOL    HW217591   4.401   6.258   2.443
 1854SOL     OW17592   1.112   5.829   6.706
 1854SOL    HW117593   1.205   5.796   6.692
 1854SOL    HW217594   1.089   5.826   6.803
 1855SOL     OW17595   8.391   6.273   6.667
 1855SOL    HW117596   8.344   6.198   6.621
 1855SOL    HW217597   8.489   6.253   6.673
 1856SOL     OW17598   9.139   3.088   1.262
 1856SOL    HW117599   9.231   3.049   1.262
 1856SOL    HW217600   9.121   3.131   1.173
 1857SOL     OW17601   3.144   1.114   0.459
 1857SOL    HW117602   3.076   1.043   0.478
 1857SOL    HW217603   3.099   1.203   0.455
 1858SOL     OW17604   7.398   8.131   5.948
 1858SOL    HW117605   7.340   8.211   5.966
 1858SOL    HW217606   7.348   8.048   5.971
 1859SOL     OW17607   1.240   2.773   0.978
 1859SOL    HW117608   1.299   2.853   0.987
 1859SOL    HW217609   1.231   2.727   1.066
 1860SOL     OW17610   5.726   2.051   6.488
 1860SOL    HW117611   5.813   2.095   6.508
 1860SOL    HW217612   5.652   2.098   6.536
 1861SOL     OW17613   4.795   0.071   1.266
 1861SOL    HW117614   4.886   0.030   1.255
 1861SOL    HW217615   4.794   0.159   1.218
 1862SOL     OW17616   1.819   8.356   5.531
 1862SOL    HW117617   1.725   8.386   5.511
 1862SOL    HW217618   1.847   8.287   5.465
 1863SOL     OW17619   7.140   4.001   1.409
 1863SOL    HW117620   7.074   3.935   1.446
 1863SOL    HW217621   7.097   4.051   1.333
 1864SOL     OW17622   0.212   5.019   0.379
 1864SOL    HW117623   0.287   5.082   0.357
 1864SOL    HW217624   0.131   5.072   0.403
 1865SOL     OW17625   4.100   4.906   1.167
 1865SOL    HW117626   4.119   4.920   1.264
 1865SOL    HW217627   4.165   4.959   1.112
 1866SOL     OW17628   8.219   3.742   5.830
 1866SOL    HW117629   8.177   3.766   5.743
 1866SOL    HW217630   8.149   3.710   5.893
 1867SOL     OW17631   4.577   1.066   2.017
 1867SOL    HW117632   4.544   1.090   2.109
 1867SOL    HW217633   4.577   0.966   2.007
 1868SOL     OW17634   2.587   2.090   6.650
 1868SOL    HW117635   2.497   2.122   6.679
 1868SOL    HW217636   2.585   2.073   6.551
 1869SOL     OW17637   4.545   7.638   1.366
 1869SOL    HW117638   4.516   7.558   1.418
 1869SOL    HW217639   4.512   7.629   1.271
 1870SOL     OW17640   7.051   2.200   0.738
 1870SOL    HW117641   7.105   2.280   0.711
 1870SOL    HW217642   7.106   2.140   0.795
 1871SOL     OW17643   6.769   6.182   6.935
 1871SOL    HW117644   6.745   6.100   6.989
 1871SOL    HW217645   6.763   6.161   6.838
 1872SOL     OW17646   3.471   1.920   6.863
 1872SOL    HW117647   3.391   1.865   6.839
 1872SOL    HW217648   3.545   1.901   6.799
 1873SOL     OW17649   8.211   0.111   6.029
 1873SOL    HW117650   8.193   0.015   6.052
 1873SOL    HW217651   8.221   0.164   6.113
 1874SOL     OW17652   8.449   4.524   5.785
 1874SOL    HW117653   8.392   4.452   5.824
 1874SOL    HW217654   8.399   4.568   5.710
 1875SOL     OW17655   8.334   4.038   6.184
 1875SOL    HW117656   8.383   4.032   6.097
 1875SOL    HW217657   8.294   4.130   6.193
 1876SOL     OW17658   7.060   5.307   6.837
 1876SOL    HW117659   6.968   5.347   6.840
 1876SOL    HW217660   7.057   5.214   6.872
 1877SOL     OW17661   3.447   4.431   0.428
 1877SOL    HW117662   3.419   4.488   0.351
 1877SOL    HW217663   3.529   4.469   0.470
 1878SOL     OW17664   8.817   6.169   4.606
 1878SOL    HW117665   8.908   6.208   4.619
 1878SOL    HW217666   8.760   6.233   4.555
 1879SOL     OW17667   8.907   3.249   0.458
 1879SOL    HW117668   8.962   3.284   0.382
 1879SOL    HW217669   8.824   3.305   0.468
 1880SOL     OW17670   4.061   8.059   0.527
 1880SOL    HW117671   4.096   8.041   0.435
 1880SOL    HW217672   4.055   7.973   0.577
 1881SOL     OW17673   3.922   6.044   0.406
 1881SOL    HW117674   3.957   6.016   0.317
 1881SOL    HW217675   3.928   5.968   0.471
 1882SOL     OW17676   3.929   1.825   6.561
 1882SOL    HW117677   3.862   1.793   6.494
 1882SOL    HW217678   4.009   1.764   6.560
 1883SOL     OW17679   3.368   3.188   5.664
 1883SOL    HW117680   3.348   3.188   5.566
 1883SOL    HW217681   3.446   3.249   5.682
 1884SOL     OW17682   2.976   3.932   0.421
 1884SOL    HW117683   2.932   3.862   0.365
 1884SOL    HW217684   2.970   4.020   0.375
 1885SOL     OW17685   1.515   7.927   1.617
 1885SOL    HW117686   1.478   8.018   1.598
 1885SOL    HW217687   1.593   7.934   1.679
 1886SOL     OW17688   3.471   7.201   0.750
 1886SOL    HW117689   3.441   7.137   0.820
 1886SOL    HW217690   3.393   7.226   0.692
 1887SOL     OW17691   3.689   5.560   1.465
 1887SOL    HW117692   3.636   5.605   1.538
 1887SOL    HW217693   3.780   5.601   1.459
 1888SOL     OW17694   6.342   5.306   6.024
 1888SOL    HW117695   6.354   5.212   5.992
 1888SOL    HW217696   6.403   5.366   5.971
 1889SOL     OW17697   1.470   2.164   5.305
 1889SOL    HW117698   1.381   2.128   5.276
 1889SOL    HW217699   1.531   2.169   5.226
 1890SOL     OW17700   3.004   5.305   6.816
 1890SOL    HW117701   3.033   5.389   6.770
 1890SOL    HW217702   3.071   5.282   6.887
 1891SOL     OW17703   7.099   7.621   6.566
 1891SOL    HW117704   7.109   7.631   6.467
 1891SOL    HW217705   7.014   7.664   6.596
 1892SOL     OW17706   8.995   4.414   6.944
 1892SOL    HW117707   9.093   4.419   6.924
 1892SOL    HW217708   8.944   4.410   6.859
 1893SOL     OW17709   5.783   0.907   6.038
 1893SOL    HW117710   5.772   0.825   5.982
 1893SOL    HW217711   5.789   0.987   5.979
 1894SOL     OW17712   8.172   1.636   0.716
 1894SOL    HW117713   8.179   1.536   0.707
 1894SOL    HW217714   8.264   1.674   0.728
 1895SOL     OW17715   5.083   3.060   1.554
 1895SOL    HW117716   5.040   2.976   1.589
 1895SOL    HW217717   5.159   3.086   1.614
 1896SOL     OW17718   1.637   3.024   5.441
 1896SOL    HW117719   1.542   3.051   5.427
 1896SOL    HW217720   1.687   3.030   5.354
 1897SOL     OW17721   9.545   6.104   4.510
 1897SOL    HW117722   9.545   6.188   4.564
 1897SOL    HW217723   9.508   6.122   4.419
 1898SOL     OW17724   6.497   7.802   0.669
 1898SOL    HW117725   6.401   7.779   0.652
 1898SOL    HW217726   6.508   7.901   0.666
 1899SOL     OW17727   7.997   4.317   0.333
 1899SOL    HW117728   8.038   4.240   0.284
 1899SOL    HW217729   8.069   4.371   0.377
 1900SOL     OW17730   2.320   7.602   5.052
 1900SOL    HW117731   2.374   7.594   4.968
 1900SOL    HW217732   2.229   7.564   5.037
 1901SOL     OW17733   1.272   2.187   0.280
 1901SOL    HW117734   1.322   2.126   0.218
 1901SOL    HW217735   1.219   2.133   0.345
 1902SOL     OW17736   4.528   1.890   1.694
 1902SOL    HW117737   4.586   1.971   1.704
 1902SOL    HW217738   4.500   1.858   1.784
 1903SOL     OW17739   5.067   2.865   0.813
 1903SOL    HW117740   5.119   2.916   0.745
 1903SOL    HW217741   5.121   2.856   0.897
 1904SOL     OW17742   4.531   2.451   6.118
 1904SOL    HW117743   4.627   2.480   6.109
 1904SOL    HW217744   4.501   2.408   6.033
 1905SOL     OW17745   9.346   7.135   0.565
 1905SOL    HW117746   9.350   7.185   0.479
 1905SOL    HW217747   9.438   7.129   0.604
 1906SOL     OW17748   3.995   7.593   5.736
 1906SOL    HW117749   4.051   7.605   5.655
 1906SOL    HW217750   4.031   7.649   5.811
 1907SOL     OW17751   1.043   5.065   6.546
 1907SOL    HW117752   1.097   5.145   6.571
 1907SOL    HW217753   1.097   5.005   6.487
 1908SOL     OW17754   3.779   0.881   1.272
 1908SOL    HW117755   3.693   0.849   1.311
 1908SOL    HW217756   3.761   0.958   1.211
 1909SOL     OW17757   5.778   0.546   0.744
 1909SOL    HW117758   5.707   0.503   0.800
 1909SOL    HW217759   5.770   0.646   0.752
 1910SOL     OW17760   0.256   6.532   6.496
 1910SOL    HW117761   0.351   6.541   6.465
 1910SOL    HW217762   0.233   6.435   6.503
 1911SOL     OW17763   7.561   5.675   0.379
 1911SOL    HW117764   7.465   5.690   0.357
 1911SOL    HW217765   7.587   5.581   0.357
 1912SOL     OW17766   2.140   1.589   6.970
 1912SOL    HW117767   2.174   1.681   6.950
 1912SOL    HW217768   2.145   1.572   7.069
 1913SOL     OW17769   0.972   4.020   0.791
 1913SOL    HW117770   1.045   4.086   0.811
 1913SOL    HW217771   0.891   4.069   0.760
 1914SOL     OW17772   5.594   0.634   1.345
 1914SOL    HW117773   5.675   0.601   1.297
 1914SOL    HW217774   5.551   0.706   1.292
 1915SOL     OW17775   7.373   6.074   5.198
 1915SOL    HW117776   7.303   6.099   5.130
 1915SOL    HW217777   7.458   6.050   5.150
 1916SOL     OW17778   7.950   4.536   0.880
 1916SOL    HW117779   7.907   4.608   0.935
 1916SOL    HW217780   8.024   4.493   0.932
 1917SOL     OW17781   1.189   3.038   0.717
 1917SOL    HW117782   1.207   3.117   0.658
 1917SOL    HW217783   1.158   2.962   0.661
 1918SOL     OW17784   3.690   2.180   2.326
 1918SOL    HW117785   3.725   2.103   2.379
 1918SOL    HW217786   3.654   2.249   2.388
 1919SOL     OW17787   7.306   5.008   0.977
 1919SOL    HW117788   7.323   5.104   0.954
 1919SOL    HW217789   7.209   4.987   0.966
 1920SOL     OW17790   5.381   1.138   1.544
 1920SOL    HW117791   5.427   1.224   1.566
 1920SOL    HW217792   5.322   1.111   1.621
 1921SOL     OW17793   2.449   2.652   1.561
 1921SOL    HW117794   2.535   2.703   1.555
 1921SOL    HW217795   2.379   2.698   1.507
 1922SOL     OW17796   4.158   0.169   5.721
 1922SOL    HW117797   4.220   0.233   5.767
 1922SOL    HW217798   4.064   0.200   5.731
 1923SOL     OW17799   4.194   6.158   2.189
 1923SOL    HW117800   4.156   6.081   2.242
 1923SOL    HW217801   4.265   6.203   2.243
 1924SOL     OW17802   8.177   2.543   6.200
 1924SOL    HW117803   8.207   2.516   6.108
 1924SOL    HW217804   8.138   2.465   6.247
 1925SOL     OW17805   3.610   6.409   6.848
 1925SOL    HW117806   3.661   6.346   6.906
 1925SOL    HW217807   3.562   6.358   6.776
 1926SOL     OW17808   5.825   6.676   1.619
 1926SOL    HW117809   5.737   6.646   1.656
 1926SOL    HW217810   5.877   6.723   1.690
 1927SOL     OW17811   1.782   3.947   0.459
 1927SOL    HW117812   1.838   3.871   0.494
 1927SOL    HW217813   1.831   4.033   0.472
 1928SOL     OW17814   8.826   2.883   1.040
 1928SOL    HW117815   8.923   2.861   1.033
 1928SOL    HW217816   8.786   2.885   0.948
 1929SOL     OW17817   7.843   6.840   0.414
 1929SOL    HW117818   7.846   6.875   0.508
 1929SOL    HW217819   7.757   6.790   0.400
 1930SOL     OW17820   5.897   5.576   5.063
 1930SOL    HW117821   5.960   5.638   5.016
 1930SOL    HW217822   5.804   5.612   5.058
 1931SOL     OW17823   2.236   5.067   6.081
 1931SOL    HW117824   2.189   5.150   6.053
 1931SOL    HW217825   2.333   5.086   6.097
 1932SOL     OW17826   3.795   3.818   6.230
 1932SOL    HW117827   3.893   3.799   6.240
 1932SOL    HW217828   3.766   3.798   6.137
 1933SOL     OW17829   3.908   5.124   6.880
 1933SOL    HW117830   3.927   5.209   6.831
 1933SOL    HW217831   3.993   5.071   6.889
 1934SOL     OW17832   5.765   3.879   1.564
 1934SOL    HW117833   5.791   3.909   1.656
 1934SOL    HW217834   5.843   3.836   1.519
 1935SOL     OW17835   3.649   7.398   0.871
 1935SOL    HW117836   3.725   7.362   0.817
 1935SOL    HW217837   3.568   7.341   0.857
 1936SOL     OW17838   2.519   5.696   6.026
 1936SOL    HW117839   2.529   5.782   6.074
 1936SOL    HW217840   2.604   5.643   6.033
 1937SOL     OW17841   1.889   6.741   0.984
 1937SOL    HW117842   1.942   6.714   1.065
 1937SOL    HW217843   1.804   6.784   1.012
 1938SOL     OW17844   1.153   7.896   1.118
 1938SOL    HW117845   1.178   7.905   1.214
 1938SOL    HW217846   1.157   7.799   1.091
 1939SOL     OW17847   4.192   3.022   1.209
 1939SOL    HW117848   4.138   3.015   1.125
 1939SOL    HW217849   4.261   2.949   1.211
 1940SOL     OW17850   4.645   2.372   0.473
 1940SOL    HW117851   4.557   2.412   0.447
 1940SOL    HW217852   4.635   2.322   0.559
 1941SOL     OW17853   4.705   6.990   6.344
 1941SOL    HW117854   4.757   6.932   6.282
 1941SOL    HW217855   4.756   7.075   6.360
 1942SOL     OW17856   7.672   5.213   0.678
 1942SOL    HW117857   7.587   5.232   0.629
 1942SOL    HW217858   7.704   5.121   0.655
 1943SOL     OW17859   8.204   5.432   6.309
 1943SOL    HW117860   8.212   5.512   6.249
 1943SOL    HW217861   8.294   5.389   6.320
 1944SOL     OW17862   0.336   7.224   4.927
 1944SOL    HW117863   0.412   7.238   4.990
 1944SOL    HW217864   0.336   7.129   4.895
 1945SOL     OW17865   0.496   6.124   5.291
 1945SOL    HW117866   0.588   6.152   5.267
 1945SOL    HW217867   0.436   6.204   5.292
 1946SOL     OW17868   9.542   8.290   5.051
 1946SOL    HW117869   9.443   8.299   5.042
 1946SOL    HW217870   9.586   8.377   5.027
 1947SOL     OW17871   8.170   6.013   6.039
 1947SOL    HW117872   8.154   6.067   5.956
 1947SOL    HW217873   8.219   6.068   6.106
 1948SOL     OW17874   4.379   1.107   6.713
 1948SOL    HW117875   4.446   1.117   6.787
 1948SOL    HW217876   4.346   1.198   6.687
 1949SOL     OW17877   5.430   3.293   0.846
 1949SOL    HW117878   5.460   3.369   0.904
 1949SOL    HW217879   5.508   3.253   0.798
 1950SOL     OW17880   6.154   1.173   0.537
 1950SOL    HW117881   6.230   1.181   0.473
 1950SOL    HW217882   6.146   1.258   0.590
 1951SOL     OW17883   3.037   5.287   1.598
 1951SOL    HW117884   2.952   5.316   1.555
 1951SOL    HW217885   3.057   5.346   1.676
 1952SOL     OW17886   3.166   5.795   1.307
 1952SOL    HW117887   3.264   5.816   1.317
 1952SOL    HW217888   3.113   5.879   1.315
 1953SOL     OW17889   1.919   6.328   6.532
 1953SOL    HW117890   1.946   6.402   6.472
 1953SOL    HW217891   1.851   6.361   6.598
 1954SOL     OW17892   2.100   8.148   6.940
 1954SOL    HW117893   2.182   8.144   6.997
 1954SOL    HW217894   2.023   8.181   6.995
 1955SOL     OW17895   4.543   6.324   6.473
 1955SOL    HW117896   4.515   6.238   6.431
 1955SOL    HW217897   4.472   6.393   6.460
 1956SOL     OW17898   7.019   7.942   6.587
 1956SOL    HW117899   7.115   7.919   6.570
 1956SOL    HW217900   6.966   7.928   6.504
 1957SOL     OW17901   1.328   3.698   6.631
 1957SOL    HW117902   1.352   3.639   6.708
 1957SOL    HW217903   1.386   3.675   6.552
 1958SOL     OW17904   4.996   5.563   1.190
 1958SOL    HW117905   5.037   5.480   1.229
 1958SOL    HW217906   5.052   5.595   1.114
 1959SOL     OW17907   6.927   5.193   5.722
 1959SOL    HW117908   6.907   5.132   5.645
 1959SOL    HW217909   7.027   5.198   5.735
 1960SOL     OW17910   1.203   4.742   2.042
 1960SOL    HW117911   1.302   4.743   2.054
 1960SOL    HW217912   1.179   4.688   1.962
 1961SOL     OW17913   7.833   8.254   5.709
 1961SOL    HW117914   7.765   8.312   5.753
 1961SOL    HW217915   7.893   8.309   5.652
 1962SOL     OW17916   1.264   2.851   6.417
 1962SOL    HW117917   1.304   2.939   6.390
 1962SOL    HW217918   1.173   2.843   6.376
 1963SOL     OW17919   1.220   3.519   6.192
 1963SOL    HW117920   1.129   3.558   6.205
 1963SOL    HW217921   1.256   3.548   6.103
 1964SOL     OW17922   6.679   8.290   6.935
 1964SOL    HW117923   6.602   8.350   6.914
 1964SOL    HW217924   6.659   8.197   6.903
 1965SOL     OW17925   1.270   7.817   5.058
 1965SOL    HW117926   1.363   7.785   5.037
 1965SOL    HW217927   1.272   7.916   5.072
 1966SOL     OW17928   9.414   3.193   5.865
 1966SOL    HW117929   9.514   3.187   5.869
 1966SOL    HW217930   9.387   3.242   5.782
 1967SOL     OW17931   8.456   2.784   6.048
 1967SOL    HW117932   8.539   2.839   6.037
 1967SOL    HW217933   8.421   2.759   5.957
 1968SOL     OW17934   8.441   1.520   6.603
 1968SOL    HW117935   8.360   1.483   6.558
 1968SOL    HW217936   8.507   1.447   6.617
 1969SOL     OW17937   7.034   1.530   6.357
 1969SOL    HW117938   6.951   1.560   6.311
 1969SOL    HW217939   7.109   1.524   6.290
 1970SOL     OW17940   2.056   6.432   6.871
 1970SOL    HW117941   1.962   6.399   6.877
 1970SOL    HW217942   2.118   6.365   6.910
 1971SOL     OW17943   4.540   1.752   1.038
 1971SOL    HW117944   4.486   1.697   0.974
 1971SOL    HW217945   4.481   1.786   1.111
 1972SOL     OW17946   3.818   4.213   6.777
 1972SOL    HW117947   3.796   4.291   6.835
 1972SOL    HW217948   3.880   4.241   6.704
 1973SOL     OW17949   5.086   0.258   1.453
 1973SOL    HW117950   5.159   0.259   1.522
 1973SOL    HW217951   5.068   0.164   1.425
 1974SOL     OW17952   7.026   5.710   6.653
 1974SOL    HW117953   7.119   5.674   6.645
 1974SOL    HW217954   7.018   5.794   6.600
 1975SOL     OW17955   3.489   7.253   2.224
 1975SOL    HW117956   3.494   7.309   2.307
 1975SOL    HW217957   3.578   7.253   2.178
 1976SOL     OW17958   3.098   4.485   0.242
 1976SOL    HW117959   3.155   4.505   0.162
 1976SOL    HW217960   3.002   4.507   0.221
 1977SOL     OW17961   3.315   1.285   1.003
 1977SOL    HW117962   3.414   1.296   1.012
 1977SOL    HW217963   3.271   1.301   1.091
 1978SOL     OW17964   1.033   5.502   1.054
 1978SOL    HW117965   0.977   5.475   1.132
 1978SOL    HW217966   1.117   5.448   1.053
 1979SOL     OW17967   5.437   3.398   5.763
 1979SOL    HW117968   5.451   3.308   5.805
 1979SOL    HW217969   5.518   3.422   5.710
 1980SOL     OW17970   0.854   3.596   6.690
 1980SOL    HW117971   0.927   3.658   6.660
 1980SOL    HW217972   0.892   3.504   6.704
 1981SOL     OW17973   3.161   5.543   6.135
 1981SOL    HW117974   3.249   5.530   6.089
 1981SOL    HW217975   3.170   5.614   6.205
 1982SOL     OW17976   4.318   6.887   1.170
 1982SOL    HW117977   4.364   6.939   1.241
 1982SOL    HW217978   4.232   6.851   1.205
 1983SOL     OW17979   0.473   2.278   6.877
 1983SOL    HW117980   0.569   2.259   6.854
 1983SOL    HW217981   0.458   2.377   6.877
 1984SOL     OW17982   2.850   6.997   6.239
 1984SOL    HW117983   2.750   7.006   6.244
 1984SOL    HW217984   2.893   7.085   6.258
 1985SOL     OW17985   2.498   2.434   0.415
 1985SOL    HW117986   2.501   2.447   0.515
 1985SOL    HW217987   2.420   2.485   0.378
 1986SOL     OW17988   0.462   6.607   6.276
 1986SOL    HW117989   0.410   6.608   6.191
 1986SOL    HW217990   0.479   6.700   6.306
 1987SOL     OW17991   1.529   2.880   0.783
 1987SOL    HW117992   1.619   2.879   0.737
 1987SOL    HW217993   1.512   2.970   0.822
 1988SOL     OW17994   7.051   5.496   6.416
 1988SOL    HW117995   6.982   5.467   6.350
 1988SOL    HW217996   7.028   5.588   6.450
 1989SOL     OW17997   7.448   2.101   6.122
 1989SOL    HW117998   7.488   2.192   6.133
 1989SOL    HW217999   7.370   2.106   6.060
 1990SOL     OW18000   2.054   2.429   0.771
 1990SOL    HW118001   2.124   2.499   0.781
 1990SOL    HW218002   2.098   2.342   0.747
 1991SOL     OW18003   6.052   2.970   0.539
 1991SOL    HW118004   6.033   3.066   0.519
 1991SOL    HW218005   6.076   2.960   0.636
 1992SOL     OW18006   3.455  -0.003   1.076
 1992SOL    HW118007   3.522  -0.006   1.002
 1992SOL    HW218008   3.369  -0.044   1.045
 1993SOL     OW18009   8.948   5.352   1.224
 1993SOL    HW118010   8.959   5.451   1.225
 1993SOL    HW218011   8.913   5.321   1.313
 1994SOL     OW18012   1.711   5.755   0.402
 1994SOL    HW118013   1.699   5.665   0.443
 1994SOL    HW218014   1.689   5.751   0.305
 1995SOL     OW18015   6.173   5.576   6.875
 1995SOL    HW118016   6.118   5.493   6.870
 1995SOL    HW218017   6.243   5.566   6.946
 1996SOL     OW18018   0.577   7.171   6.800
 1996SOL    HW118019   0.496   7.221   6.770
 1996SOL    HW218020   0.647   7.236   6.831
 1997SOL     OW18021   3.891   6.641   6.360
 1997SOL    HW118022   3.815   6.593   6.404
 1997SOL    HW218023   3.899   6.733   6.397
 1998SOL     OW18024   5.835   7.212   0.542
 1998SOL    HW118025   5.803   7.118   0.531
 1998SOL    HW218026   5.762   7.267   0.581
 1999SOL     OW18027   2.718   0.789   6.806
 1999SOL    HW118028   2.643   0.835   6.855
 1999SOL    HW218029   2.684   0.706   6.763
 2000SOL     OW18030   5.826   0.608   0.438
 2000SOL    HW118031   5.836   0.583   0.534
 2000SOL    HW218032   5.799   0.528   0.385
 2001SOL     OW18033   8.845   4.112   0.529
 2001SOL    HW118034   8.873   4.025   0.569
 2001SOL    HW218035   8.922   4.152   0.479
 2002SOL     OW18036   5.105   7.783   5.449
 2002SOL    HW118037   5.182   7.745   5.397
 2002SOL    HW218038   5.044   7.832   5.387
 2003SOL     OW18039   3.013   8.226   0.897
 2003SOL    HW118040   2.974   8.288   0.830
 2003SOL    HW218041   3.099   8.188   0.862
 2004SOL     OW18042   9.574   7.436   1.966
 2004SOL    HW118043   9.530   7.471   2.048
 2004SOL    HW218044   9.633   7.506   1.926
 2005SOL     OW18045   1.925   7.282   6.876
 2005SOL    HW118046   1.979   7.365   6.890
 2005SOL    HW218047   1.981   7.202   6.896
 2006SOL     OW18048   5.362   7.782   5.318
 2006SOL    HW118049   5.326   7.736   5.237
 2006SOL    HW218050   5.456   7.811   5.301
 2007SOL     OW18051   6.297   0.647   1.700
 2007SOL    HW118052   6.377   0.634   1.758
 2007SOL    HW218053   6.220   0.679   1.756
 2008SOL     OW18054   3.920   7.237   1.581
 2008SOL    HW118055   3.982   7.221   1.658
 2008SOL    HW218056   3.933   7.330   1.547
 2009SOL     OW18057   3.485   7.140   1.647
 2009SOL    HW118058   3.444   7.051   1.664
 2009SOL    HW218059   3.490   7.191   1.733
 2010SOL     OW18060   8.399   5.835   6.470
 2010SOL    HW118061   8.354   5.759   6.517
 2010SOL    HW218062   8.338   5.872   6.400
 2011SOL     OW18063   9.449   8.184   1.248
 2011SOL    HW118064   9.482   8.221   1.335
 2011SOL    HW218065   9.408   8.258   1.194
 2012SOL     OW18066   4.821   3.499   6.682
 2012SOL    HW118067   4.849   3.424   6.742
 2012SOL    HW218068   4.875   3.581   6.703
 2013SOL     OW18069   4.238   5.230   1.791
 2013SOL    HW118070   4.159   5.223   1.853
 2013SOL    HW218071   4.313   5.275   1.839
 2014SOL     OW18072   8.475   1.358   0.281
 2014SOL    HW118073   8.493   1.397   0.371
 2014SOL    HW218074   8.379   1.334   0.273
 2015SOL     OW18075   9.260   4.195   5.930
 2015SOL    HW118076   9.283   4.124   5.864
 2015SOL    HW218077   9.208   4.267   5.884
 2016SOL     OW18078   1.082   4.655   0.813
 2016SOL    HW118079   1.105   4.751   0.794
 2016SOL    HW218080   1.131   4.597   0.748
 2017SOL     OW18081   3.085   7.853   1.224
 2017SOL    HW118082   3.010   7.893   1.170
 2017SOL    HW218083   3.054   7.767   1.264
 2018SOL     OW18084   6.056   8.159   1.519
 2018SOL    HW118085   6.088   8.136   1.611
 2018SOL    HW218086   6.003   8.083   1.482
 2019SOL     OW18087   7.020   7.914   6.156
 2019SOL    HW118088   6.979   7.857   6.085
 2019SOL    HW218089   6.957   7.923   6.233
 2020SOL     OW18090   8.413   7.831   5.850
 2020SOL    HW118091   8.341   7.879   5.900
 2020SOL    HW218092   8.449   7.891   5.778
 2021SOL     OW18093   7.465   0.726   6.270
 2021SOL    HW118094   7.482   0.655   6.338
 2021SOL    HW218095   7.417   0.686   6.192
 2022SOL     OW18096   4.181   2.415   6.608
 2022SOL    HW118097   4.152   2.347   6.541
 2022SOL    HW218098   4.143   2.504   6.584
 2023SOL     OW18099   7.134   6.801   1.021
 2023SOL    HW118100   7.061   6.869   1.027
 2023SOL    HW218101   7.210   6.828   1.081
 2024SOL     OW18102   6.454   1.358   1.261
 2024SOL    HW118103   6.486   1.296   1.332
 2024SOL    HW218104   6.500   1.447   1.271
 2025SOL     OW18105   7.229   2.839   5.747
 2025SOL    HW118106   7.148   2.791   5.712
 2025SOL    HW218107   7.310   2.806   5.699
 2026SOL     OW18108   5.721   3.803   1.096
 2026SOL    HW118109   5.821   3.797   1.093
 2026SOL    HW218110   5.693   3.857   1.175
 2027SOL     OW18111   7.034   5.351   1.349
 2027SOL    HW118112   7.006   5.367   1.443
 2027SOL    HW218113   7.113   5.408   1.327
 2028SOL     OW18114   0.601   5.920   6.686
 2028SOL    HW118115   0.635   6.013   6.670
 2028SOL    HW218116   0.645   5.858   6.622
 2029SOL     OW18117   3.652   3.590   1.499
 2029SOL    HW118118   3.668   3.621   1.593
 2029SOL    HW218119   3.563   3.623   1.468
 2030SOL     OW18120   6.701   3.363   0.901
 2030SOL    HW118121   6.657   3.273   0.910
 2030SOL    HW218122   6.798   3.355   0.924
 2031SOL     OW18123   6.244   7.888   6.361
 2031SOL    HW118124   6.270   7.833   6.440
 2031SOL    HW218125   6.172   7.952   6.387
 2032SOL     OW18126   5.490   5.342   1.122
 2032SOL    HW118127   5.496   5.316   1.025
 2032SOL    HW218128   5.403   5.388   1.139
 2033SOL     OW18129   6.726   0.280   0.841
 2033SOL    HW118130   6.785   0.360   0.829
 2033SOL    HW218131   6.759   0.226   0.919
 2034SOL     OW18132   4.152   4.904   1.658
 2034SOL    HW118133   4.138   5.001   1.638
 2034SOL    HW218134   4.162   4.853   1.572
 2035SOL     OW18135   8.181   0.400   6.828
 2035SOL    HW118136   8.127   0.430   6.749
 2035SOL    HW218137   8.144   0.313   6.862
 2036SOL     OW18138   3.631   1.105   6.949
 2036SOL    HW118139   3.622   1.028   6.886
 2036SOL    HW218140   3.578   1.087   7.032
 2037SOL     OW18141   6.586   3.480   0.270
 2037SOL    HW118142   6.599   3.545   0.344
 2037SOL    HW218143   6.571   3.528   0.184
 2038SOL     OW18144   0.917   2.535   6.588
 2038SOL    HW118145   1.013   2.505   6.590
 2038SOL    HW218146   0.871   2.504   6.671
 2039SOL     OW18147   5.360   4.452   1.170
 2039SOL    HW118148   5.330   4.435   1.076
 2039SOL    HW218149   5.427   4.526   1.171
 2040SOL     OW18150   7.176   1.309   0.773
 2040SOL    HW118151   7.143   1.264   0.690
 2040SOL    HW218152   7.200   1.404   0.752
 2041SOL     OW18153   3.692   6.140   0.622
 2041SOL    HW118154   3.763   6.081   0.661
 2041SOL    HW218155   3.732   6.230   0.603
 2042SOL     OW18156   1.799   1.816   6.167
 2042SOL    HW118157   1.888   1.821   6.121
 2042SOL    HW218158   1.734   1.766   6.109
 2043SOL     OW18159   3.842   2.862   1.767
 2043SOL    HW118160   3.822   2.815   1.681
 2043SOL    HW218161   3.863   2.794   1.838
 2044SOL     OW18162   2.949   6.905   1.552
 2044SOL    HW118163   2.892   6.946   1.624
 2044SOL    HW218164   3.017   6.845   1.595
 2045SOL     OW18165   1.019   2.745   5.549
 2045SOL    HW118166   1.111   2.782   5.555
 2045SOL    HW218167   0.956   2.816   5.519
 2046SOL     OW18168   2.616   1.234   1.625
 2046SOL    HW118169   2.681   1.187   1.686
 2046SOL    HW218170   2.595   1.175   1.547
 2047SOL     OW18171   2.364   2.953   0.585
 2047SOL    HW118172   2.413   2.878   0.631
 2047SOL    HW218173   2.321   2.918   0.502
 2048SOL     OW18174   1.321   7.845   6.020
 2048SOL    HW118175   1.320   7.745   6.010
 2048SOL    HW218176   1.372   7.885   5.944
 2049SOL     OW18177   6.963   3.380   0.973
 2049SOL    HW118178   6.956   3.479   0.985
 2049SOL    HW218179   7.044   3.346   1.021
 2050SOL     OW18180   0.360   5.772   5.837
 2050SOL    HW118181   0.422   5.791   5.761
 2050SOL    HW218182   0.269   5.750   5.802
 2051SOL     OW18183   5.614   2.334   0.459
 2051SOL    HW118184   5.670   2.286   0.392
 2051SOL    HW218185   5.603   2.429   0.433
 2052SOL     OW18186   5.512   2.503   5.860
 2052SOL    HW118187   5.412   2.500   5.858
 2052SOL    HW218188   5.548   2.414   5.887
 2053SOL     OW18189   4.220   1.654   1.788
 2053SOL    HW118190   4.300   1.624   1.736
 2053SOL    HW218191   4.214   1.754   1.785
 2054SOL     OW18192   4.623   4.521   0.304
 2054SOL    HW118193   4.541   4.513   0.247
 2054SOL    HW218194   4.671   4.433   0.304
 2055SOL     OW18195   6.249   4.203   5.259
 2055SOL    HW118196   6.203   4.291   5.250
 2055SOL    HW218197   6.274   4.188   5.355
 2056SOL     OW18198   7.948   0.273   1.369
 2056SOL    HW118199   7.946   0.216   1.452
 2056SOL    HW218200   7.993   0.223   1.295
 2057SOL     OW18201   8.375   6.651   5.283
 2057SOL    HW118202   8.375   6.580   5.212
 2057SOL    HW218203   8.334   6.614   5.366
 2058SOL     OW18204   9.339   8.265   0.620
 2058SOL    HW118205   9.369   8.178   0.660
 2058SOL    HW218206   9.351   8.338   0.686
 2059SOL     OW18207   7.469   8.300   0.824
 2059SOL    HW118208   7.424   8.215   0.851
 2059SOL    HW218209   7.442   8.323   0.730
 2060SOL     OW18210   1.665   4.936   5.679
 2060SOL    HW118211   1.628   4.843   5.668
 2060SOL    HW218212   1.735   4.952   5.610
 2061SOL     OW18213   6.628   5.724   5.918
 2061SOL    HW118214   6.568   5.645   5.904
 2061SOL    HW218215   6.585   5.805   5.879
 2062SOL     OW18216   1.709   7.833   6.760
 2062SOL    HW118217   1.659   7.916   6.784
 2062SOL    HW218218   1.649   7.772   6.708
 2063SOL     OW18219   2.573   7.286   5.584
 2063SOL    HW118220   2.637   7.209   5.574
 2063SOL    HW218221   2.526   7.301   5.497
 2064SOL     OW18222   0.587   0.313   0.342
 2064SOL    HW118223   0.672   0.279   0.380
 2064SOL    HW218224   0.586   0.413   0.347
 2065SOL     OW18225   4.228   5.549   6.385
 2065SOL    HW118226   4.135   5.552   6.423
 2065SOL    HW218227   4.235   5.612   6.309
 2066SOL     OW18228   0.199   4.239   0.770
 2066SOL    HW118229   0.109   4.258   0.808
 2066SOL    HW218230   0.222   4.143   0.786
 2067SOL     OW18231   5.412   4.765   6.201
 2067SOL    HW118232   5.451   4.683   6.241
 2067SOL    HW218233   5.335   4.796   6.256
 2068SOL     OW18234   7.631   3.620   6.318
 2068SOL    HW118235   7.595   3.685   6.252
 2068SOL    HW218236   7.722   3.591   6.289
 2069SOL     OW18237   4.748   7.616   5.635
 2069SOL    HW118238   4.724   7.562   5.555
 2069SOL    HW218239   4.847   7.613   5.648
 2070SOL     OW18240   4.002   1.777   1.195
 2070SOL    HW118241   3.919   1.730   1.165
 2070SOL    HW218242   4.035   1.837   1.122
 2071SOL     OW18243   6.796   6.716   5.225
 2071SOL    HW118244   6.703   6.684   5.240
 2071SOL    HW218245   6.820   6.704   5.128
 2072SOL     OW18246   1.366   8.134   5.987
 2072SOL    HW118247   1.349   8.225   5.947
 2072SOL    HW218248   1.461   8.129   6.018
 2073SOL     OW18249   0.925   7.494   6.577
 2073SOL    HW118250   0.990   7.421   6.554
 2073SOL    HW218251   0.832   7.461   6.564
 2074SOL     OW18252   4.941   6.838   1.908
 2074SOL    HW118253   5.008   6.771   1.938
 2074SOL    HW218254   4.873   6.853   1.980
 2075SOL     OW18255   0.864   2.110   1.080
 2075SOL    HW118256   0.833   2.182   1.142
 2075SOL    HW218257   0.961   2.120   1.062
 2076SOL     OW18258   4.652   1.220   6.848
 2076SOL    HW118259   4.696   1.177   6.769
 2076SOL    HW218260   4.640   1.152   6.920
 2077SOL     OW18261   8.878   8.420   5.401
 2077SOL    HW118262   8.797   8.457   5.355
 2077SOL    HW218263   8.855   8.332   5.442
 2078SOL     OW18264   0.413   6.610   0.720
 2078SOL    HW118265   0.460   6.609   0.632
 2078SOL    HW218266   0.320   6.575   0.709
 2079SOL     OW18267   2.761   1.777   0.706
 2079SOL    HW118268   2.704   1.695   0.699
 2079SOL    HW218269   2.847   1.755   0.752
 2080SOL     OW18270   7.336   0.037   0.389
 2080SOL    HW118271   7.357   0.072   0.481
 2080SOL    HW218272   7.372  -0.056   0.380
 2081SOL     OW18273   3.236   0.707   2.055
 2081SOL    HW118274   3.268   0.802   2.056
 2081SOL    HW218275   3.312   0.647   2.029
 2082SOL     OW18276   1.085   3.224   6.054
 2082SOL    HW118277   1.095   3.137   6.101
 2082SOL    HW218278   1.093   3.299   6.119
 2083SOL     OW18279   2.838   2.462   0.718
 2083SOL    HW118280   2.921   2.517   0.722
 2083SOL    HW218281   2.860   2.372   0.681
 2084SOL     OW18282   3.571   1.315   6.016
 2084SOL    HW118283   3.584   1.226   6.060
 2084SOL    HW218284   3.479   1.319   5.978
 2085SOL     OW18285   4.056   0.221   1.741
 2085SOL    HW118286   3.995   0.227   1.661
 2085SOL    HW218287   4.140   0.173   1.715
 2086SOL     OW18288   2.731   1.959   1.909
 2086SOL    HW118289   2.728   1.909   1.823
 2086SOL    HW218290   2.651   1.936   1.964
 2087SOL     OW18291   5.220   6.746   2.207
 2087SOL    HW118292   5.195   6.842   2.198
 2087SOL    HW218293   5.198   6.697   2.123
 2088SOL     OW18294   1.233   0.378   1.337
 2088SOL    HW118295   1.146   0.421   1.362
 2088SOL    HW218296   1.299   0.392   1.411
 2089SOL     OW18297   4.894   7.434   5.149
 2089SOL    HW118298   4.980   7.482   5.165
 2089SOL    HW218299   4.848   7.473   5.069
 2090SOL     OW18300   4.420   1.347   6.497
 2090SOL    HW118301   4.476   1.283   6.443
 2090SOL    HW218302   4.480   1.412   6.544
 2091SOL     OW18303   1.692   1.346   6.960
 2091SOL    HW118304   1.777   1.377   7.003
 2091SOL    HW218305   1.615   1.394   7.000
 2092SOL     OW18306   7.475  -0.023   6.620
 2092SOL    HW118307   7.538  -0.099   6.602
 2092SOL    HW218308   7.468  -0.010   6.719
 2093SOL     OW18309   2.584   6.961   5.979
 2093SOL    HW118310   2.588   7.060   5.989
 2093SOL    HW218311   2.566   6.919   6.068
 2094SOL     OW18312   7.437   4.593   6.838
 2094SOL    HW118313   7.443   4.663   6.909
 2094SOL    HW218314   7.367   4.526   6.862
 2095SOL     OW18315   6.570   6.326   1.642
 2095SOL    HW118316   6.661   6.288   1.659
 2095SOL    HW218317   6.500   6.257   1.662
 2096SOL     OW18318   2.752   5.812   0.938
 2096SOL    HW118319   2.764   5.713   0.935
 2096SOL    HW218320   2.790   5.848   1.023
 2097SOL     OW18321   2.050   0.792   0.700
 2097SOL    HW118322   2.106   0.724   0.652
 2097SOL    HW218323   2.073   0.884   0.667
 2098SOL     OW18324   1.630   4.404   5.753
 2098SOL    HW118325   1.588   4.401   5.662
 2098SOL    HW218326   1.705   4.469   5.754
 2099SOL     OW18327   4.255   6.198   6.590
 2099SOL    HW118328   4.329   6.211   6.657
 2099SOL    HW218329   4.235   6.285   6.545
 2100SOL     OW18330   0.118   6.512   4.516
 2100SOL    HW118331   0.045   6.578   4.498
 2100SOL    HW218332   0.184   6.515   4.441
 2101SOL     OW18333   6.246   3.427   0.402
 2101SOL    HW118334   6.190   3.439   0.484
 2101SOL    HW218335   6.332   3.383   0.427
 2102SOL     OW18336   8.607   6.974   4.886
 2102SOL    HW118337   8.671   6.929   4.824
 2102SOL    HW218338   8.514   6.941   4.868
 2103SOL     OW18339   9.440   2.741   5.804
 2103SOL    HW118340   9.356   2.782   5.839
 2103SOL    HW218341   9.488   2.808   5.746
 2104SOL     OW18342   5.226   1.306   0.916
 2104SOL    HW118343   5.131   1.305   0.884
 2104SOL    HW218344   5.227   1.300   1.016
 2105SOL     OW18345   5.337   0.980   0.814
 2105SOL    HW118346   5.373   1.067   0.848
 2105SOL    HW218347   5.237   0.985   0.809
 2106SOL     OW18348   3.460   1.417   6.410
 2106SOL    HW118349   3.387   1.430   6.477
 2106SOL    HW218350   3.431   1.454   6.322
 2107SOL     OW18351   5.474   1.194   6.178
 2107SOL    HW118352   5.395   1.251   6.157
 2107SOL    HW218353   5.506   1.214   6.271
 2108SOL     OW18354   3.196   0.045   1.501
 2108SOL    HW118355   3.182   0.117   1.434
 2108SOL    HW218356   3.278  -0.007   1.478
 2109SOL     OW18357   8.335   3.036   6.501
 2109SOL    HW118358   8.246   2.997   6.525
 2109SOL    HW218359   8.404   2.963   6.498
 2110SOL     OW18360   3.978   3.786   0.632
 2110SOL    HW118361   3.977   3.883   0.606
 2110SOL    HW218362   4.070   3.760   0.660
 2111SOL     OW18363   5.075   2.584   0.358
 2111SOL    HW118364   4.988   2.558   0.400
 2111SOL    HW218365   5.121   2.502   0.324
 2112SOL     OW18366   8.585   8.238   6.015
 2112SOL    HW118367   8.641   8.321   6.018
 2112SOL    HW218368   8.489   8.263   6.025
 2113SOL     OW18369   8.311   7.879   0.861
 2113SOL    HW118370   8.340   7.951   0.797
 2113SOL    HW218371   8.288   7.919   0.949
 2114SOL     OW18372   8.281   3.602   0.613
 2114SOL    HW118373   8.308   3.511   0.645
 2114SOL    HW218374   8.233   3.649   0.687
 2115SOL     OW18375   6.733   2.050   6.379
 2115SOL    HW118376   6.731   2.011   6.471
 2115SOL    HW218377   6.693   2.141   6.381
 2116SOL     OW18378   3.103   2.485   1.045
 2116SOL    HW118379   3.081   2.549   0.971
 2116SOL    HW218380   3.095   2.531   1.133
 2117SOL     OW18381   9.067   3.157   0.647
 2117SOL    HW118382   9.155   3.203   0.663
 2117SOL    HW218383   9.022   3.199   0.568
 2118SOL     OW18384   1.089   5.828   0.241
 2118SOL    HW118385   1.048   5.752   0.293
 2118SOL    HW218386   1.180   5.847   0.277
 2119SOL     OW18387   9.423   2.170   1.023
 2119SOL    HW118388   9.505   2.115   1.008
 2119SOL    HW218389   9.440   2.263   0.990
 2120SOL     OW18390   3.298   7.653   0.313
 2120SOL    HW118391   3.330   7.600   0.391
 2120SOL    HW218392   3.295   7.750   0.337
 2121SOL     OW18393   6.173   1.913   5.778
 2121SOL    HW118394   6.081   1.884   5.754
 2121SOL    HW218395   6.182   2.012   5.768
 2122SOL     OW18396   3.723   1.823   1.686
 2122SOL    HW118397   3.775   1.908   1.698
 2122SOL    HW218398   3.780   1.756   1.638
 2123SOL     OW18399   7.419   8.154   5.682
 2123SOL    HW118400   7.350   8.226   5.670
 2123SOL    HW218401   7.440   8.144   5.779
 2124SOL     OW18402   1.054   8.074   6.057
 2124SOL    HW118403   1.104   8.144   6.109
 2124SOL    HW218404   1.119   8.016   6.009
 2125SOL     OW18405   9.378   6.815   0.904
 2125SOL    HW118406   9.477   6.816   0.890
 2125SOL    HW218407   9.333   6.778   0.822
 2126SOL     OW18408   2.992   6.140   0.592
 2126SOL    HW118409   2.975   6.086   0.675
 2126SOL    HW218410   2.905   6.174   0.556
 2127SOL     OW18411   0.363   3.448   0.495
 2127SOL    HW118412   0.338   3.523   0.556
 2127SOL    HW218413   0.378   3.365   0.549
 2128SOL     OW18414   8.275   2.640   6.748
 2128SOL    HW118415   8.340   2.564   6.756
 2128SOL    HW218416   8.290   2.705   6.822
 2129SOL     OW18417   7.120   8.244   1.036
 2129SOL    HW118418   7.185   8.167   1.028
 2129SOL    HW218419   7.169   8.330   1.018
 2130SOL     OW18420   4.273   8.425   0.732
 2130SOL    HW118421   4.228   8.336   0.736
 2130SOL    HW218422   4.352   8.425   0.793
 2131SOL     OW18423   1.271   6.679   6.036
 2131SOL    HW118424   1.314   6.685   5.946
 2131SOL    HW218425   1.300   6.595   6.082
 2132SOL     OW18426   0.399   6.699   0.419
 2132SOL    HW118427   0.485   6.649   0.419
 2132SOL    HW218428   0.323   6.635   0.427
 2133SOL     OW18429   3.338   1.281   0.269
 2133SOL    HW118430   3.370   1.203   0.324
 2133SOL    HW218431   3.414   1.346   0.257
 2134SOL     OW18432   9.412   3.618   0.812
 2134SOL    HW118433   9.454   3.706   0.834
 2134SOL    HW218434   9.329   3.606   0.868
 2135SOL     OW18435   3.417   4.000   6.951
 2135SOL    HW118436   3.417   3.918   6.894
 2135SOL    HW218437   3.430   3.975   7.047
 2136SOL     OW18438   2.731   8.291   0.262
 2136SOL    HW118439   2.742   8.385   0.232
 2136SOL    HW218440   2.708   8.289   0.360
 2137SOL     OW18441   1.997   4.009   0.871
 2137SOL    HW118442   1.918   3.963   0.911
 2137SOL    HW218443   1.969   4.057   0.788
 2138SOL     OW18444   2.352   2.507   5.636
 2138SOL    HW118445   2.347   2.503   5.736
 2138SOL    HW218446   2.302   2.430   5.597
 2139SOL     OW18447   3.883   1.895   6.076
 2139SOL    HW118448   3.898   1.808   6.122
 2139SOL    HW218449   3.968   1.925   6.033
 2140SOL     OW18450   1.496   5.327   5.937
 2140SOL    HW118451   1.592   5.310   5.960
 2140SOL    HW218452   1.448   5.239   5.927
 2141SOL     OW18453   6.651   1.073   1.172
 2141SOL    HW118454   6.627   1.018   1.251
 2141SOL    HW218455   6.747   1.059   1.149
 2142SOL     OW18456   0.233   1.753   0.563
 2142SOL    HW118457   0.195   1.828   0.617
 2142SOL    HW218458   0.199   1.758   0.469
 2143SOL     OW18459   6.732   3.297   1.648
 2143SOL    HW118460   6.815   3.340   1.610
 2143SOL    HW218461   6.721   3.326   1.743
 2144SOL     OW18462   4.832   6.766   5.084
 2144SOL    HW118463   4.807   6.748   4.989
 2144SOL    HW218464   4.769   6.833   5.123
 2145SOL     OW18465   7.045   0.099   1.958
 2145SOL    HW118466   6.947   0.080   1.960
 2145SOL    HW218467   7.062   0.187   2.002
 2146SOL     OW18468   2.972   1.340   6.414
 2146SOL    HW118469   3.004   1.400   6.486
 2146SOL    HW218470   3.027   1.354   6.331
 2147SOL     OW18471   2.000   6.734   6.950
 2147SOL    HW118472   2.098   6.745   6.935
 2147SOL    HW218473   1.981   6.639   6.974
 2148SOL     OW18474   4.638   1.918   5.726
 2148SOL    HW118475   4.636   1.819   5.714
 2148SOL    HW218476   4.546   1.951   5.746
 2149SOL     OW18477   6.471  -0.017   1.335
 2149SOL    HW118478   6.519  -0.062   1.260
 2149SOL    HW218479   6.523   0.061   1.367
 2150SOL     OW18480   3.043   8.135   0.589
 2150SOL    HW118481   3.127   8.096   0.627
 2150SOL    HW218482   3.048   8.235   0.593
 2151SOL     OW18483   3.279   1.479   0.724
 2151SOL    HW118484   3.230   1.485   0.637
 2151SOL    HW218485   3.224   1.428   0.790
 2152SOL     OW18486   1.292   2.693   0.734
 2152SOL    HW118487   1.366   2.760   0.725
 2152SOL    HW218488   1.238   2.714   0.815
 2153SOL     OW18489   4.932   0.208   5.538
 2153SOL    HW118490   4.902   0.206   5.442
 2153SOL    HW218491   4.895   0.290   5.583
 2154SOL     OW18492   2.751   1.818   6.535
 2154SOL    HW118493   2.664   1.772   6.516
 2154SOL    HW218494   2.735   1.915   6.551
 2155SOL     OW18495   8.052   7.331   0.815
 2155SOL    HW118496   8.022   7.249   0.863
 2155SOL    HW218497   8.092   7.395   0.881
 2156SOL     OW18498   9.558   4.791   5.560
 2156SOL    HW118499   9.575   4.722   5.489
 2156SOL    HW218500   9.518   4.872   5.517
 2157SOL     OW18501   5.557   6.718   0.521
 2157SOL    HW118502   5.610   6.647   0.567
 2157SOL    HW218503   5.481   6.747   0.580
 2158SOL     OW18504   2.000   8.194   5.901
 2158SOL    HW118505   1.949   8.192   5.987
 2158SOL    HW218506   2.031   8.287   5.884
 2159SOL     OW18507   4.338   7.901   6.642
 2159SOL    HW118508   4.267   7.888   6.712
 2159SOL    HW218509   4.332   7.993   6.606
 2160SOL     OW18510   3.882   1.159   0.364
 2160SOL    HW118511   3.848   1.223   0.433
 2160SOL    HW218512   3.808   1.133   0.303
 2161SOL     OW18513   9.222   2.786   0.383
 2161SOL    HW118514   9.215   2.874   0.432
 2161SOL    HW218515   9.273   2.799   0.299
 2162SOL     OW18516   9.154   5.196   1.434
 2162SOL    HW118517   9.059   5.227   1.436
 2162SOL    HW218518   9.186   5.179   1.527
 2163SOL     OW18519   8.724   2.558   0.488
 2163SOL    HW118520   8.653   2.621   0.521
 2163SOL    HW218521   8.813   2.589   0.523
 2164SOL     OW18522   4.554   0.512   1.744
 2164SOL    HW118523   4.618   0.537   1.671
 2164SOL    HW218524   4.605   0.471   1.819
 2165SOL     OW18525   0.771   7.735   5.392
 2165SOL    HW118526   0.713   7.721   5.311
 2165SOL    HW218527   0.796   7.647   5.431
 2166SOL     OW18528   8.616   3.922   5.711
 2166SOL    HW118529   8.558   3.931   5.630
 2166SOL    HW218530   8.669   4.005   5.724
 2167SOL     OW18531   4.218   2.705   1.087
 2167SOL    HW118532   4.186   2.780   1.029
 2167SOL    HW218533   4.142   2.643   1.107
 2168SOL     OW18534   4.205   6.097   2.585
 2168SOL    HW118535   4.122   6.125   2.632
 2168SOL    HW218536   4.269   6.173   2.581
 2169SOL     OW18537   8.386   4.093   1.339
 2169SOL    HW118538   8.481   4.084   1.366
 2169SOL    HW218539   8.338   4.006   1.352
 2170SOL     OW18540   6.537   3.800   0.823
 2170SOL    HW118541   6.496   3.881   0.865
 2170SOL    HW218542   6.466   3.747   0.777
 2171SOL     OW18543   4.460   6.353   1.709
 2171SOL    HW118544   4.438   6.324   1.802
 2171SOL    HW218545   4.551   6.321   1.684
 2172SOL     OW18546   2.931   5.865   5.492
 2172SOL    HW118547   2.947   5.800   5.418
 2172SOL    HW218548   2.878   5.942   5.458
 2173SOL     OW18549   4.536   0.865   2.441
 2173SOL    HW118550   4.581   0.954   2.453
 2173SOL    HW218551   4.443   0.879   2.409
 2174SOL     OW18552   6.409   5.172   1.820
 2174SOL    HW118553   6.437   5.168   1.724
 2174SOL    HW218554   6.459   5.103   1.872
 2175SOL     OW18555   1.077   4.849   5.665
 2175SOL    HW118556   1.047   4.825   5.573
 2175SOL    HW218557   1.177   4.849   5.669
 2176SOL     OW18558   7.981   3.531   6.406
 2176SOL    HW118559   7.944   3.568   6.321
 2176SOL    HW218560   8.073   3.495   6.390
 2177SOL     OW18561   8.396   2.741   1.243
 2177SOL    HW118562   8.489   2.708   1.259
 2177SOL    HW218563   8.352   2.763   1.330
 2178SOL     OW18564   5.508   7.397   0.950
 2178SOL    HW118565   5.550   7.463   1.012
 2178SOL    HW218566   5.473   7.319   1.002
 2179SOL     OW18567   5.353   5.437   6.672
 2179SOL    HW118568   5.439   5.399   6.640
 2179SOL    HW218569   5.371   5.521   6.724
 2180SOL     OW18570   3.842   6.619   0.817
 2180SOL    HW118571   3.925   6.593   0.867
 2180SOL    HW218572   3.763   6.574   0.859
 2181SOL     OW18573   8.713   2.633   6.450
 2181SOL    HW118574   8.775   2.555   6.443
 2181SOL    HW218575   8.637   2.610   6.511
 2182SOL     OW18576   6.049   7.926   6.080
 2182SOL    HW118577   6.022   7.882   6.166
 2182SOL    HW218578   6.142   7.898   6.057
 2183SOL     OW18579   3.438   8.139   0.920
 2183SOL    HW118580   3.457   8.192   1.003
 2183SOL    HW218581   3.518   8.084   0.897
 2184SOL     OW18582   8.871   7.102   1.327
 2184SOL    HW118583   8.908   7.072   1.415
 2184SOL    HW218584   8.913   7.189   1.301
 2185SOL     OW18585   8.916   2.689   6.703
 2185SOL    HW118586   8.869   2.776   6.685
 2185SOL    HW218587   8.935   2.643   6.617
 2186SOL     OW18588   1.671   5.805   6.868
 2186SOL    HW118589   1.602   5.874   6.846
 2186SOL    HW218590   1.759   5.849   6.884
 2187SOL     OW18591   0.298   0.877   6.803
 2187SOL    HW118592   0.369   0.909   6.866
 2187SOL    HW218593   0.339   0.814   6.737
 2188SOL     OW18594   9.404   0.345   0.378
 2188SOL    HW118595   9.409   0.253   0.338
 2188SOL    HW218596   9.488   0.395   0.357
 2189SOL     OW18597   0.122   7.059   1.053
 2189SOL    HW118598   0.130   7.000   0.972
 2189SOL    HW218599   0.099   7.002   1.133
 2190SOL     OW18600   3.444   0.790   5.933
 2190SOL    HW118601   3.390   0.760   6.012
 2190SOL    HW218602   3.391   0.858   5.881
 2191SOL     OW18603   3.075   5.216   0.529
 2191SOL    HW118604   3.122   5.203   0.617
 2191SOL    HW218605   3.007   5.288   0.538
 2192SOL     OW18606   5.191   6.800   0.988
 2192SOL    HW118607   5.100   6.791   0.947
 2192SOL    HW218608   5.234   6.884   0.953
 2193SOL     OW18609   6.402   7.563   5.279
 2193SOL    HW118610   6.423   7.660   5.276
 2193SOL    HW218611   6.486   7.510   5.266
 2194SOL     OW18612   8.146   3.642   6.786
 2194SOL    HW118613   8.114   3.661   6.879
 2194SOL    HW218614   8.097   3.702   6.721
 2195SOL     OW18615   1.715   0.962   5.904
 2195SOL    HW118616   1.755   0.904   5.834
 2195SOL    HW218617   1.622   0.930   5.925
 2196SOL     OW18618   5.760   0.461   6.700
 2196SOL    HW118619   5.687   0.525   6.721
 2196SOL    HW218620   5.844   0.511   6.681
 2197SOL     OW18621   4.956   4.762   6.927
 2197SOL    HW118622   4.968   4.664   6.912
 2197SOL    HW218623   4.880   4.776   6.991
 2198SOL     OW18624   4.609   4.476   0.601
 2198SOL    HW118625   4.512   4.454   0.611
 2198SOL    HW218626   4.645   4.429   0.520
 2199SOL     OW18627   3.391   5.925   5.851
 2199SOL    HW118628   3.389   5.865   5.932
 2199SOL    HW218629   3.446   5.882   5.780
 2200SOL     OW18630   9.356   3.766   1.190
 2200SOL    HW118631   9.453   3.745   1.176
 2200SOL    HW218632   9.334   3.758   1.287
 2201SOL     OW18633   2.965   1.658   0.413
 2201SOL    HW118634   3.001   1.601   0.487
 2201SOL    HW218635   2.934   1.599   0.338
 2202SOL     OW18636   2.351   1.856   0.569
 2202SOL    HW118637   2.285   1.886   0.638
 2202SOL    HW218638   2.413   1.932   0.547
 2203SOL     OW18639   4.032   7.110   2.706
 2203SOL    HW118640   4.095   7.052   2.655
 2203SOL    HW218641   3.956   7.054   2.740
 2204SOL     OW18642   0.391   7.574   0.411
 2204SOL    HW118643   0.342   7.582   0.498
 2204SOL    HW218644   0.485   7.607   0.423
 2205SOL     OW18645   2.363   6.286   0.722
 2205SOL    HW118646   2.419   6.231   0.784
 2205SOL    HW218647   2.406   6.376   0.710
 2206SOL     OW18648   7.169   5.394   0.457
 2206SOL    HW118649   7.127   5.444   0.532
 2206SOL    HW218650   7.265   5.378   0.478
 2207SOL     OW18651   5.590   6.445   5.754
 2207SOL    HW118652   5.633   6.355   5.747
 2207SOL    HW218653   5.538   6.464   5.670
 2208SOL     OW18654   0.608   2.113   1.404
 2208SOL    HW118655   0.679   2.066   1.458
 2208SOL    HW218656   0.577   2.194   1.453
 2209SOL     OW18657   3.199   0.522   2.358
 2209SOL    HW118658   3.195   0.609   2.407
 2209SOL    HW218659   3.245   0.454   2.416
 2210SOL     OW18660   5.515   3.562   0.433
 2210SOL    HW118661   5.419   3.535   0.432
 2210SOL    HW218662   5.560   3.524   0.514
 2211SOL     OW18663   4.640   2.653   0.894
 2211SOL    HW118664   4.608   2.574   0.946
 2211SOL    HW218665   4.581   2.731   0.912
 2212SOL     OW18666   9.554   1.044   0.644
 2212SOL    HW118667   9.541   1.130   0.693
 2212SOL    HW218668   9.649   1.036   0.614
 2213SOL     OW18669   4.355   4.565   1.673
 2213SOL    HW118670   4.309   4.603   1.594
 2213SOL    HW218671   4.317   4.604   1.757
 2214SOL     OW18672   2.352   6.629   6.113
 2214SOL    HW118673   2.343   6.537   6.151
 2214SOL    HW218674   2.445   6.663   6.131
 2215SOL     OW18675   0.508   4.089   6.579
 2215SOL    HW118676   0.438   4.092   6.650
 2215SOL    HW218677   0.594   4.058   6.619
 2216SOL     OW18678   2.704   1.630   2.517
 2216SOL    HW118679   2.694   1.620   2.418
 2216SOL    HW218680   2.710   1.540   2.560
 2217SOL     OW18681   2.539   6.311   0.285
 2217SOL    HW118682   2.491   6.396   0.262
 2217SOL    HW218683   2.638   6.326   0.280
 2218SOL     OW18684   3.266   0.145   0.859
 2218SOL    HW118685   3.265   0.220   0.925
 2218SOL    HW218686   3.176   0.102   0.855
 2219SOL     OW18687   2.820   7.574   5.620
 2219SOL    HW118688   2.767   7.529   5.692
 2219SOL    HW218689   2.883   7.509   5.580
 2220SOL     OW18690   4.331   5.775   1.425
 2220SOL    HW118691   4.337   5.764   1.326
 2220SOL    HW218692   4.331   5.685   1.469
 2221SOL     OW18693   5.565   7.680   6.472
 2221SOL    HW118694   5.478   7.653   6.514
 2221SOL    HW218695   5.634   7.694   6.543
 2222SOL     OW18696   4.236   3.054   6.851
 2222SOL    HW118697   4.328   3.091   6.838
 2222SOL    HW218698   4.240   2.954   6.853
 2223SOL     OW18699   4.251   5.317   0.343
 2223SOL    HW118700   4.193   5.252   0.293
 2223SOL    HW218701   4.284   5.387   0.280
 2224SOL     OW18702   3.885   5.333   1.279
 2224SOL    HW118703   3.861   5.251   1.227
 2224SOL    HW218704   3.816   5.349   1.350
 2225SOL     OW18705   7.326   6.732   0.245
 2225SOL    HW118706   7.265   6.731   0.166
 2225SOL    HW218707   7.271   6.726   0.329
 2226SOL     OW18708   2.543   4.019   0.491
 2226SOL    HW118709   2.524   3.997   0.586
 2226SOL    HW218710   2.566   3.936   0.441
 2227SOL     OW18711   8.516   7.557   5.782
 2227SOL    HW118712   8.447   7.542   5.853
 2227SOL    HW218713   8.500   7.645   5.738
 2228SOL     OW18714   4.903   6.996   1.177
 2228SOL    HW118715   4.929   6.958   1.088
 2228SOL    HW218716   4.803   7.006   1.181
 2229SOL     OW18717   6.591   5.539   0.831
 2229SOL    HW118718   6.680   5.494   0.843
 2229SOL    HW218719   6.603   5.638   0.836
 2230SOL     OW18720   5.932   3.202   0.315
 2230SOL    HW118721   5.873   3.263   0.264
 2230SOL    HW218722   5.997   3.158   0.253
 2231SOL     OW18723   2.736   0.861   2.178
 2231SOL    HW118724   2.683   0.793   2.128
 2231SOL    HW218725   2.828   0.827   2.195
 2232SOL     OW18726   4.709   2.442   1.164
 2232SOL    HW118727   4.692   2.527   1.215
 2232SOL    HW218728   4.625   2.413   1.119
 2233SOL     OW18729   3.501   6.807   0.847
 2233SOL    HW118730   3.564   6.882   0.869
 2233SOL    HW218731   3.495   6.797   0.748
 2234SOL     OW18732   0.112   5.661   5.725
 2234SOL    HW118733   0.163   5.588   5.679
 2234SOL    HW218734   0.081   5.728   5.658
 2235SOL     OW18735   2.456   0.046   5.062
 2235SOL    HW118736   2.428   0.038   4.966
 2235SOL    HW218737   2.535   0.107   5.069
 2236SOL     OW18738   8.071   7.227   0.552
 2236SOL    HW118739   8.048   7.276   0.635
 2236SOL    HW218740   8.170   7.229   0.538
 2237SOL     OW18741   2.744   2.365   1.702
 2237SOL    HW118742   2.824   2.306   1.714
 2237SOL    HW218743   2.710   2.393   1.791
 2238SOL     OW18744   3.239   0.979   1.059
 2238SOL    HW118745   3.148   0.965   1.099
 2238SOL    HW218746   3.239   1.064   1.006
 2239SOL     OW18747   5.114   2.811   6.875
 2239SOL    HW118748   5.183   2.813   6.803
 2239SOL    HW218749   5.160   2.799   6.964
 2240SOL     OW18750   2.669   5.489   0.300
 2240SOL    HW118751   2.748   5.471   0.359
 2240SOL    HW218752   2.595   5.527   0.355
 2241SOL     OW18753   9.435   0.475   1.061
 2241SOL    HW118754   9.525   0.515   1.046
 2241SOL    HW218755   9.424   0.395   1.001
 2242SOL     OW18756   0.979   2.204   6.213
 2242SOL    HW118757   1.004   2.198   6.117
 2242SOL    HW218758   0.956   2.298   6.236
 2243SOL     OW18759   0.989   5.893   6.146
 2243SOL    HW118760   0.889   5.886   6.150
 2243SOL    HW218761   1.024   5.906   6.239
 2244SOL     OW18762   5.760   4.255   5.951
 2244SOL    HW118763   5.677   4.300   5.983
 2244SOL    HW218764   5.736   4.178   5.893
 2245SOL     OW18765   9.456   6.874   1.275
 2245SOL    HW118766   9.361   6.903   1.258
 2245SOL    HW218767   9.469   6.859   1.373
 2246SOL     OW18768   7.714   3.735   6.895
 2246SOL    HW118769   7.780   3.665   6.925
 2246SOL    HW218770   7.622   3.695   6.894
 2247SOL     OW18771   2.532   0.502   6.392
 2247SOL    HW118772   2.611   0.449   6.361
 2247SOL    HW218773   2.464   0.441   6.432
 2248SOL     OW18774   7.497   2.001   0.964
 2248SOL    HW118775   7.591   1.979   0.937
 2248SOL    HW218776   7.440   2.007   0.882
 2249SOL     OW18777   3.444   0.704   2.303
 2249SOL    HW118778   3.367   0.673   2.247
 2249SOL    HW218779   3.529   0.675   2.260
 2250SOL     OW18780   1.153   8.124   5.639
 2250SOL    HW118781   1.121   8.031   5.651
 2250SOL    HW218782   1.106   8.185   5.703
 2251SOL     OW18783   1.067   5.956   5.574
 2251SOL    HW118784   0.997   5.942   5.644
 2251SOL    HW218785   1.148   5.996   5.615
 2252SOL     OW18786   2.218   1.605   5.740
 2252SOL    HW118787   2.227   1.646   5.649
 2252SOL    HW218788   2.125   1.621   5.774
 2253SOL     OW18789   8.676   3.423   1.183
 2253SOL    HW118790   8.730   3.457   1.106
 2253SOL    HW218791   8.580   3.420   1.158
 2254SOL     OW18792   0.724   3.598   5.730
 2254SOL    HW118793   0.640   3.558   5.694
 2254SOL    HW218794   0.709   3.695   5.750
 2255SOL     OW18795   2.288   7.251   1.461
 2255SOL    HW118796   2.252   7.204   1.381
 2255SOL    HW218797   2.220   7.316   1.495
 2256SOL     OW18798   2.353   3.540   1.014
 2256SOL    HW118799   2.308   3.620   1.053
 2256SOL    HW218800   2.449   3.539   1.042
 2257SOL     OW18801   6.138   5.969   2.041
 2257SOL    HW118802   6.220   5.962   1.984
 2257SOL    HW218803   6.159   6.021   2.124
 2258SOL     OW18804   8.623   3.824   0.918
 2258SOL    HW118805   8.619   3.726   0.901
 2258SOL    HW218806   8.701   3.845   0.977
 2259SOL     OW18807   9.305   0.348   0.658
 2259SOL    HW118808   9.315   0.405   0.576
 2259SOL    HW218809   9.392   0.347   0.708
 2260SOL     OW18810   3.664   0.784   0.629
 2260SOL    HW118811   3.714   0.831   0.556
 2260SOL    HW218812   3.668   0.685   0.614
 2261SOL     OW18813   5.969   7.515   6.268
 2261SOL    HW118814   5.888   7.564   6.235
 2261SOL    HW218815   5.948   7.418   6.277
 2262SOL     OW18816   0.822   0.951   1.678
 2262SOL    HW118817   0.901   0.921   1.732
 2262SOL    HW218818   0.750   0.882   1.684
 2263SOL     OW18819   4.480   2.341   1.061
 2263SOL    HW118820   4.381   2.326   1.072
 2263SOL    HW218821   4.522   2.258   1.024
 2264SOL     OW18822   3.486   2.938   1.388
 2264SOL    HW118823   3.422   2.871   1.350
 2264SOL    HW218824   3.571   2.936   1.337
 2265SOL     OW18825   8.585   1.361   6.116
 2265SOL    HW118826   8.574   1.268   6.082
 2265SOL    HW218827   8.601   1.360   6.214
 2266SOL     OW18828   4.969   8.219   1.509
 2266SOL    HW118829   4.872   8.210   1.533
 2266SOL    HW218830   5.019   8.252   1.588
 2267SOL     OW18831   0.130   6.301   4.687
 2267SOL    HW118832   0.211   6.319   4.744
 2267SOL    HW218833   0.114   6.379   4.627
 2268SOL     OW18834   2.941   3.526   5.657
 2268SOL    HW118835   2.910   3.531   5.563
 2268SOL    HW218836   3.041   3.535   5.660
 2269SOL     OW18837   8.580   5.209   5.631
 2269SOL    HW118838   8.519   5.134   5.606
 2269SOL    HW218839   8.657   5.212   5.567
 2270SOL     OW18840   7.667   0.687   6.665
 2270SOL    HW118841   7.652   0.746   6.586
 2270SOL    HW218842   7.717   0.605   6.637
 2271SOL     OW18843   0.909   6.806   0.249
 2271SOL    HW118844   0.865   6.891   0.276
 2271SOL    HW218845   0.995   6.825   0.203
 2272SOL     OW18846   4.842   4.791   6.135
 2272SOL    HW118847   4.796   4.879   6.141
 2272SOL    HW218848   4.774   4.718   6.130
 2273SOL     OW18849   5.585   0.854   1.160
 2273SOL    HW118850   5.610   0.926   1.096
 2273SOL    HW218851   5.536   0.895   1.238
 2274SOL     OW18852   3.521   5.108   0.934
 2274SOL    HW118853   3.565   5.121   0.845
 2274SOL    HW218854   3.438   5.053   0.923
 2275SOL     OW18855   4.182   7.840   1.508
 2275SOL    HW118856   4.241   7.773   1.553
 2275SOL    HW218857   4.238   7.904   1.454
 2276SOL     OW18858   4.394   3.445   0.273
 2276SOL    HW118859   4.427   3.352   0.254
 2276SOL    HW218860   4.361   3.487   0.188
 2277SOL     OW18861   0.857   2.929   0.492
 2277SOL    HW118862   0.835   3.023   0.516
 2277SOL    HW218863   0.937   2.898   0.544
 2278SOL     OW18864   1.759   6.498   5.179
 2278SOL    HW118865   1.783   6.434   5.106
 2278SOL    HW218866   1.836   6.560   5.195
 2279SOL     OW18867   4.035   5.877   5.798
 2279SOL    HW118868   4.019   5.779   5.810
 2279SOL    HW218869   4.100   5.891   5.723
 2280SOL     OW18870   2.523   1.518   6.061
 2280SOL    HW118871   2.504   1.465   5.978
 2280SOL    HW218872   2.462   1.597   6.066
 2281SOL     OW18873   7.112   1.564   0.650
 2281SOL    HW118874   7.186   1.630   0.638
 2281SOL    HW218875   7.105   1.506   0.569
 2282SOL     OW18876   9.442   6.807   1.629
 2282SOL    HW118877   9.347   6.832   1.645
 2282SOL    HW218878   9.453   6.708   1.640
 2283SOL     OW18879   7.663   4.236   0.318
 2283SOL    HW118880   7.603   4.178   0.263
 2283SOL    HW218881   7.685   4.319   0.267
 2284SOL     OW18882   7.068   5.055   6.921
 2284SOL    HW118883   7.030   4.970   6.959
 2284SOL    HW218884   7.166   5.059   6.941
 2285SOL     OW18885   3.859   3.063   1.459
 2285SOL    HW118886   3.853   2.972   1.502
 2285SOL    HW218887   3.819   3.060   1.368
 2286SOL     OW18888   2.120   2.720   6.190
 2286SOL    HW118889   2.215   2.719   6.221
 2286SOL    HW218890   2.099   2.809   6.151
 2287SOL     OW18891   8.755   2.940   6.293
 2287SOL    HW118892   8.671   2.912   6.339
 2287SOL    HW218893   8.823   2.868   6.301
 2288SOL     OW18894   7.224   1.379   6.630
 2288SOL    HW118895   7.137   1.328   6.630
 2288SOL    HW218896   7.262   1.378   6.538
 2289SOL     OW18897   0.338   0.970   0.727
 2289SOL    HW118898   0.387   1.034   0.786
 2289SOL    HW218899   0.261   0.930   0.778
 2290SOL     OW18900   9.575   0.879   5.122
 2290SOL    HW118901   9.538   0.970   5.136
 2290SOL    HW218902   9.606   0.870   5.027
 2291SOL     OW18903   2.408   2.591   6.713
 2291SOL    HW118904   2.469   2.599   6.791
 2291SOL    HW218905   2.386   2.682   6.679
 2292SOL     OW18906   4.577   7.912   5.231
 2292SOL    HW118907   4.620   7.949   5.149
 2292SOL    HW218908   4.574   7.812   5.225
 2293SOL     OW18909   9.372   8.369   5.287
 2293SOL    HW118910   9.288   8.402   5.330
 2293SOL    HW218911   9.365   8.378   5.188
 2294SOL     OW18912   5.597   0.659   2.389
 2294SOL    HW118913   5.676   0.718   2.404
 2294SOL    HW218914   5.523   0.686   2.451
 2295SOL     OW18915   0.631   7.526   6.527
 2295SOL    HW118916   0.577   7.534   6.611
 2295SOL    HW218917   0.611   7.603   6.467
 2296SOL     OW18918   7.398   0.482   0.380
 2296SOL    HW118919   7.483   0.514   0.337
 2296SOL    HW218920   7.415   0.462   0.477
 2297SOL     OW18921   7.569   5.618   0.648
 2297SOL    HW118922   7.566   5.659   0.557
 2297SOL    HW218923   7.636   5.665   0.704
 2298SOL     OW18924   4.009   5.722   6.973
 2298SOL    HW118925   3.957   5.708   7.057
 2298SOL    HW218926   4.061   5.639   6.952
 2299SOL     OW18927   1.878   6.116   0.343
 2299SOL    HW118928   1.924   6.074   0.264
 2299SOL    HW218929   1.846   6.207   0.319
 2300SOL     OW18930   7.507   6.226   5.387
 2300SOL    HW118931   7.466   6.156   5.328
 2300SOL    HW218932   7.509   6.313   5.338
 2301SOL     OW18933   2.646   1.428   6.549
 2301SOL    HW118934   2.650   1.456   6.453
 2301SOL    HW218935   2.590   1.493   6.600
 2302SOL     OW18936   3.419   1.084   6.410
 2302SOL    HW118937   3.355   1.017   6.449
 2302SOL    HW218938   3.367   1.161   6.373
 2303SOL     OW18939   4.931   5.957   6.923
 2303SOL    HW118940   4.941   5.948   7.022
 2303SOL    HW218941   5.020   5.977   6.881
 2304SOL     OW18942   6.710   6.479   5.746
 2304SOL    HW118943   6.789   6.539   5.732
 2304SOL    HW218944   6.692   6.470   5.844
 2305SOL     OW18945   2.804   5.018   1.281
 2305SOL    HW118946   2.756   5.060   1.204
 2305SOL    HW218947   2.878   5.078   1.311
 2306SOL     OW18948   8.823   2.441   5.228
 2306SOL    HW118949   8.830   2.341   5.227
 2306SOL    HW218950   8.727   2.468   5.230
 2307SOL     OW18951   5.903   2.417   6.203
 2307SOL    HW118952   5.911   2.488   6.133
 2307SOL    HW218953   5.902   2.327   6.160
 2308SOL     OW18954   8.230   8.379   5.130
 2308SOL    HW118955   8.149   8.432   5.107
 2308SOL    HW218956   8.289   8.433   5.191
 2309SOL     OW18957   3.692   0.046   5.763
 2309SOL    HW118958   3.691  -0.045   5.804
 2309SOL    HW218959   3.668   0.114   5.833
 2310SOL     OW18960   7.151   0.378   6.130
 2310SOL    HW118961   7.083   0.448   6.107
 2310SOL    HW218962   7.105   0.291   6.148
 2311SOL     OW18963   9.054   6.667   6.527
 2311SOL    HW118964   8.982   6.686   6.460
 2311SOL    HW218965   9.086   6.753   6.568
 2312SOL     OW18966   6.801   4.005   6.931
 2312SOL    HW118967   6.808   3.968   7.024
 2312SOL    HW218968   6.783   4.103   6.935
 2313SOL     OW18969   2.520   5.621   1.045
 2313SOL    HW118970   2.553   5.535   1.007
 2313SOL    HW218971   2.435   5.606   1.096
 2314SOL     OW18972   3.665   1.744   6.783
 2314SOL    HW118973   3.711   1.665   6.742
 2314SOL    HW218974   3.722   1.825   6.773
 2315SOL     OW18975   6.505   1.741   1.454
 2315SOL    HW118976   6.574   1.671   1.435
 2315SOL    HW218977   6.492   1.798   1.373
 2316SOL     OW18978   4.760   7.940   0.911
 2316SOL    HW118979   4.825   7.945   0.835
 2316SOL    HW218980   4.744   8.032   0.947
 2317SOL     OW18981   4.784   6.339   6.645
 2317SOL    HW118982   4.703   6.328   6.586
 2317SOL    HW218983   4.846   6.405   6.604
 2318SOL     OW18984   1.279   8.169   1.323
 2318SOL    HW118985   1.280   8.159   1.423
 2318SOL    HW218986   1.195   8.129   1.286
 2319SOL     OW18987   5.476   0.609   6.199
 2319SOL    HW118988   5.435   0.700   6.202
 2319SOL    HW218989   5.575   0.617   6.207
 2320SOL     OW18990   5.094   0.217   5.768
 2320SOL    HW118991   5.025   0.196   5.699
 2320SOL    HW218992   5.090   0.149   5.841
 2321SOL     OW18993   2.068   1.018   1.358
 2321SOL    HW118994   2.046   1.114   1.378
 2321SOL    HW218995   2.086   0.970   1.444
 2322SOL     OW18996   1.026   8.316   5.829
 2322SOL    HW118997   0.965   8.307   5.907
 2322SOL    HW218998   1.115   8.349   5.861
 2323SOL     OW18999   4.893   8.211   6.140
 2323SOL    HW119000   4.944   8.168   6.214
 2323SOL    HW219001   4.894   8.152   6.059
 2324SOL     OW19002   5.980   4.298   6.108
 2324SOL    HW119003   6.065   4.244   6.111
 2324SOL    HW219004   5.918   4.259   6.041
 2325SOL     OW19005   0.512   7.028   0.286
 2325SOL    HW119006   0.462   6.943   0.274
 2325SOL    HW219007   0.552   7.056   0.198
 2326SOL     OW19008   1.370   0.553   6.231
 2326SOL    HW119009   1.438   0.572   6.303
 2326SOL    HW219010   1.285   0.523   6.273
 2327SOL     OW19011   6.312   4.941   5.697
 2327SOL    HW119012   6.350   4.849   5.690
 2327SOL    HW219013   6.259   4.962   5.616
 2328SOL     OW19014   6.507   0.296   6.455
 2328SOL    HW119015   6.600   0.331   6.459
 2328SOL    HW219016   6.505   0.202   6.487
 2329SOL     OW19017   8.408   4.548   0.633
 2329SOL    HW119018   8.503   4.517   0.634
 2329SOL    HW219019   8.363   4.514   0.551
 2330SOL     OW19020   2.296   3.135   0.805
 2330SOL    HW119021   2.323   3.072   0.733
 2330SOL    HW219022   2.332   3.226   0.785
 2331SOL     OW19023   0.202   5.132   6.002
 2331SOL    HW119024   0.257   5.111   5.922
 2331SOL    HW219025   0.113   5.169   5.973
 2332SOL     OW19026   8.339   3.666   5.366
 2332SOL    HW119027   8.252   3.638   5.408
 2332SOL    HW219028   8.376   3.591   5.313
 2333SOL     OW19029   6.584   2.030   0.818
 2333SOL    HW119030   6.522   2.095   0.775
 2333SOL    HW219031   6.598   1.951   0.758
 2334SOL     OW19032   0.776   3.074   5.308
 2334SOL    HW119033   0.806   3.169   5.303
 2334SOL    HW219034   0.704   3.059   5.240
 2335SOL     OW19035   0.567   0.216   1.069
 2335SOL    HW119036   0.616   0.299   1.043
 2335SOL    HW219037   0.481   0.241   1.114
 2336SOL     OW19038   6.004   0.703   6.172
 2336SOL    HW119039   6.068   0.688   6.097
 2336SOL    HW219040   5.922   0.647   6.158
 2337SOL     OW19041   3.734   2.636   0.630
 2337SOL    HW119042   3.704   2.549   0.669
 2337SOL    HW219043   3.667   2.668   0.563
 2338SOL     OW19044   5.782   6.516   6.098
 2338SOL    HW119045   5.857   6.450   6.097
 2338SOL    HW219046   5.699   6.472   6.063
 2339SOL     OW19047   7.388   0.896   5.684
 2339SOL    HW119048   7.404   0.995   5.677
 2339SOL    HW219049   7.306   0.872   5.632
 2340SOL     OW19050   3.535   5.071   1.460
 2340SOL    HW119051   3.609   5.126   1.500
 2340SOL    HW219052   3.509   5.111   1.372
 2341SOL     OW19053   2.750   6.238   1.182
 2341SOL    HW119054   2.826   6.180   1.153
 2341SOL    HW219055   2.705   6.277   1.102
 2342SOL     OW19056   8.429   7.485   0.619
 2342SOL    HW119057   8.388   7.397   0.595
 2342SOL    HW219058   8.529   7.478   0.612
 2343SOL     OW19059   5.007   2.832   1.293
 2343SOL    HW119060   4.956   2.792   1.369
 2343SOL    HW219061   5.017   2.765   1.220
 2344SOL     OW19062   3.911   5.187   6.286
 2344SOL    HW119063   3.815   5.162   6.296
 2344SOL    HW219064   3.953   5.132   6.214
 2345SOL     OW19065   3.917   6.172   6.808
 2345SOL    HW119066   3.876   6.235   6.874
 2345SOL    HW219067   4.000   6.132   6.848
 2346SOL     OW19068   6.536   4.904   6.394
 2346SOL    HW119069   6.601   4.977   6.411
 2346SOL    HW219070   6.584   4.816   6.394
 2347SOL     OW19071   4.235   8.072   1.347
 2347SOL    HW119072   4.204   8.093   1.254
 2347SOL    HW219073   4.204   8.144   1.409
 2348SOL     OW19074   8.685   7.821   6.866
 2348SOL    HW119075   8.712   7.811   6.770
 2348SOL    HW219076   8.687   7.918   6.891
 2349SOL     OW19077   1.832   7.969   0.482
 2349SOL    HW119078   1.842   8.009   0.573
 2349SOL    HW219079   1.807   8.040   0.416
 2350SOL     OW19080   5.656   1.119   1.990
 2350SOL    HW119081   5.750   1.102   2.020
 2350SOL    HW219082   5.656   1.190   1.919
 2351SOL     OW19083   3.583   0.503   0.377
 2351SOL    HW119084   3.613   0.500   0.473
 2351SOL    HW219085   3.663   0.498   0.317
 2352SOL     OW19086   2.244   6.432   1.669
 2352SOL    HW119087   2.222   6.342   1.706
 2352SOL    HW219088   2.163   6.470   1.625
 2353SOL     OW19089   1.045   7.035   1.518
 2353SOL    HW119090   1.119   7.098   1.495
 2353SOL    HW219091   0.972   7.083   1.566
 2354SOL     OW19092   3.604   0.097   0.344
 2354SOL    HW119093   3.551   0.018   0.377
 2354SOL    HW219094   3.631   0.154   0.421
 2355SOL     OW19095   9.574   4.650   0.937
 2355SOL    HW119096   9.633   4.714   0.987
 2355SOL    HW219097   9.555   4.570   0.994
 2356SOL     OW19098   2.225   5.322   0.338
 2356SOL    HW119099   2.266   5.308   0.248
 2356SOL    HW219100   2.137   5.275   0.343
 2357SOL     OW19101   4.777   2.218   0.790
 2357SOL    HW119102   4.691   2.182   0.753
 2357SOL    HW219103   4.788   2.188   0.885
 2358SOL     OW19104   4.052   4.801   6.729
 2358SOL    HW119105   4.000   4.790   6.814
 2358SOL    HW219106   4.001   4.859   6.666
 2359SOL     OW19107   2.308   7.679   6.559
 2359SOL    HW119108   2.399   7.655   6.525
 2359SOL    HW219109   2.240   7.664   6.487
 2360SOL     OW19110   7.590   3.869   0.480
 2360SOL    HW119111   7.503   3.900   0.442
 2360SOL    HW219112   7.652   3.947   0.489
 2361SOL     OW19113   1.811   6.202   6.281
 2361SOL    HW119114   1.875   6.231   6.210
 2361SOL    HW219115   1.855   6.212   6.371
 2362SOL     OW19116   4.791   1.155   6.633
 2362SOL    HW119117   4.825   1.097   6.558
 2362SOL    HW219118   4.865   1.213   6.667
 2363SOL     OW19119   4.059   4.448   1.638
 2363SOL    HW119120   4.012   4.366   1.671
 2363SOL    HW219121   3.993   4.519   1.617
 2364SOL     OW19122   6.506   2.807   6.304
 2364SOL    HW119123   6.492   2.885   6.243
 2364SOL    HW219124   6.503   2.722   6.251
 2365SOL     OW19125   2.117   3.908   1.912
 2365SOL    HW119126   2.018   3.900   1.900
 2365SOL    HW219127   2.164   3.849   1.847
 2366SOL     OW19128   5.283   0.413   5.801
 2366SOL    HW119129   5.305   0.413   5.898
 2366SOL    HW219130   5.219   0.338   5.781
 2367SOL     OW19131   3.209   6.172   1.625
 2367SOL    HW119132   3.238   6.233   1.698
 2367SOL    HW219133   3.109   6.174   1.617
 2368SOL     OW19134   6.524   8.298   5.630
 2368SOL    HW119135   6.586   8.223   5.608
 2368SOL    HW219136   6.577   8.376   5.663
 2369SOL     OW19137   4.995   3.930   1.811
 2369SOL    HW119138   5.016   3.833   1.798
 2369SOL    HW219139   4.967   3.946   1.905
 2370SOL     OW19140   5.693   2.145   1.748
 2370SOL    HW119141   5.735   2.055   1.754
 2370SOL    HW219142   5.595   2.135   1.729
 2371SOL     OW19143   5.101   0.070   1.009
 2371SOL    HW119144   5.183   0.031   1.049
 2371SOL    HW219145   5.090   0.165   1.040
 2372SOL     OW19146   1.822   4.923   6.341
 2372SOL    HW119147   1.776   5.009   6.364
 2372SOL    HW219148   1.882   4.936   6.262
 2373SOL     OW19149   4.078   6.826   5.186
 2373SOL    HW119150   4.035   6.783   5.265
 2373SOL    HW219151   4.013   6.888   5.142
 2374SOL     OW19152   2.032   7.489   6.462
 2374SOL    HW119153   2.026   7.556   6.388
 2374SOL    HW219154   1.971   7.516   6.537
 2375SOL     OW19155   7.779   3.756   2.203
 2375SOL    HW119156   7.785   3.855   2.204
 2375SOL    HW219157   7.684   3.729   2.183
 2376SOL     OW19158   7.323   7.811   5.279
 2376SOL    HW119159   7.390   7.859   5.222
 2376SOL    HW219160   7.236   7.860   5.278
 2377SOL     OW19161   4.500   4.900   6.236
 2377SOL    HW119162   4.493   4.958   6.155
 2377SOL    HW219163   4.493   4.956   6.318
 2378SOL     OW19164   3.879   2.366   1.553
 2378SOL    HW119165   3.971   2.339   1.583
 2378SOL    HW219166   3.864   2.462   1.579
 2379SOL     OW19167   0.633   4.103   6.945
 2379SOL    HW119168   0.595   4.037   7.010
 2379SOL    HW219169   0.662   4.054   6.862
 2380SOL     OW19170   3.220   4.711   0.515
 2380SOL    HW119171   3.305   4.729   0.566
 2380SOL    HW219172   3.174   4.631   0.555
 2381SOL     OW19173   3.265   1.209   6.194
 2381SOL    HW119174   3.209   1.161   6.127
 2381SOL    HW219175   3.223   1.297   6.216
 2382SOL     OW19176   5.060   5.019   5.928
 2382SOL    HW119177   5.015   4.983   5.846
 2382SOL    HW219178   5.095   4.943   5.983
 2383SOL     OW19179   8.370  -0.047   0.597
 2383SOL    HW119180   8.310   0.030   0.620
 2383SOL    HW219181   8.448  -0.014   0.544
 2384SOL     OW19182   1.240   3.414   6.727
 2384SOL    HW119183   1.204   3.408   6.820
 2384SOL    HW219184   1.296   3.334   6.707
 2385SOL     OW19185   3.953   6.090   1.704
 2385SOL    HW119186   3.932   6.107   1.608
 2385SOL    HW219187   3.895   6.149   1.761
 2386SOL     OW19188   8.228   0.331   6.201
 2386SOL    HW119189   8.305   0.375   6.156
 2386SOL    HW219190   8.214   0.373   6.291
 2387SOL     OW19191   8.925   4.359   6.329
 2387SOL    HW119192   8.965   4.305   6.255
 2387SOL    HW219193   8.997   4.410   6.376
 2388SOL     OW19194   6.245   0.270   5.884
 2388SOL    HW119195   6.162   0.292   5.833
 2388SOL    HW219196   6.232   0.183   5.932
 2389SOL     OW19197   3.797   4.901   0.510
 2389SOL    HW119198   3.783   4.999   0.501
 2389SOL    HW219199   3.814   4.879   0.606
 2390SOL     OW19200   1.850   8.215   0.295
 2390SOL    HW119201   1.842   8.311   0.321
 2390SOL    HW219202   1.779   8.192   0.228
 2391SOL     OW19203   3.928   7.243   5.949
 2391SOL    HW119204   3.923   7.290   6.037
 2391SOL    HW219205   3.971   7.154   5.961
 2392SOL     OW19206   8.204   0.647   6.630
 2392SOL    HW119207   8.134   0.642   6.702
 2392SOL    HW219208   8.170   0.705   6.556
 2393SOL     OW19209   0.988   5.954   5.219
 2393SOL    HW119210   1.030   5.907   5.142
 2393SOL    HW219211   1.055   5.963   5.293
 2394SOL     OW19212   3.223   2.762   6.910
 2394SOL    HW119213   3.188   2.821   6.837
 2394SOL    HW219214   3.244   2.671   6.872
 2395SOL     OW19215   9.039   5.468   6.260
 2395SOL    HW119216   9.123   5.414   6.267
 2395SOL    HW219217   8.988   5.441   6.178
 2396SOL     OW19218   3.278   7.219   0.567
 2396SOL    HW119219   3.197   7.165   0.590
 2396SOL    HW219220   3.301   7.205   0.471
 2397SOL     OW19221   6.355   2.949   1.685
 2397SOL    HW119222   6.347   2.916   1.779
 2397SOL    HW219223   6.374   3.048   1.685
 2398SOL     OW19224   8.636   5.068   0.927
 2398SOL    HW119225   8.698   5.050   1.003
 2398SOL    HW219226   8.649   4.999   0.856
 2399SOL     OW19227   7.184   7.400   1.957
 2399SOL    HW119228   7.284   7.400   1.968
 2399SOL    HW219229   7.144   7.460   2.026
 2400SOL     OW19230   0.539   5.776   0.760
 2400SOL    HW119231   0.616   5.713   0.744
 2400SOL    HW219232   0.454   5.724   0.762
 2401SOL     OW19233   1.806   6.970   6.572
 2401SOL    HW119234   1.855   7.057   6.578
 2401SOL    HW219235   1.795   6.944   6.476
 2402SOL     OW19236   5.101   4.903   1.233
 2402SOL    HW119237   5.090   4.804   1.238
 2402SOL    HW219238   5.161   4.934   1.306
 2403SOL     OW19239   3.213   1.963   0.965
 2403SOL    HW119240   3.249   1.980   1.057
 2403SOL    HW219241   3.249   1.876   0.931
 2404SOL     OW19242   0.967   7.767   4.330
 2404SOL    HW119243   0.868   7.758   4.316
 2404SOL    HW219244   0.985   7.842   4.394
 2405SOL     OW19245   1.416   5.950   5.454
 2405SOL    HW119246   1.382   5.938   5.361
 2405SOL    HW219247   1.349   5.916   5.519
 2406SOL     OW19248   7.706   3.352   6.771
 2406SOL    HW119249   7.735   3.275   6.828
 2406SOL    HW219250   7.606   3.359   6.775
 2407SOL     OW19251   3.647   5.152   6.323
 2407SOL    HW119252   3.575   5.163   6.254
 2407SOL    HW219253   3.608   5.111   6.406
 2408SOL     OW19254   8.357   3.536   6.467
 2408SOL    HW119255   8.335   3.535   6.370
 2408SOL    HW219256   8.440   3.590   6.482
 2409SOL     OW19257   6.525   4.014   6.653
 2409SOL    HW119258   6.612   4.035   6.609
 2409SOL    HW219259   6.465   4.094   6.650
 2410SOL     OW19260   0.423   7.435   5.306
 2410SOL    HW119261   0.420   7.453   5.207
 2410SOL    HW219262   0.334   7.402   5.336
 2411SOL     OW19263   2.437   5.837   0.659
 2411SOL    HW119264   2.386   5.803   0.738
 2411SOL    HW219265   2.374   5.856   0.584
 2412SOL     OW19266   8.535   6.920   5.618
 2412SOL    HW119267   8.559   6.936   5.522
 2412SOL    HW219268   8.435   6.915   5.626
 2413SOL     OW19269   2.966   1.356   1.942
 2413SOL    HW119270   2.973   1.309   1.854
 2413SOL    HW219271   2.948   1.453   1.927
 2414SOL     OW19272   1.164   7.558   1.858
 2414SOL    HW119273   1.176   7.643   1.909
 2414SOL    HW219274   1.075   7.557   1.813
 2415SOL     OW19275   2.083   5.735   5.806
 2415SOL    HW119276   2.142   5.772   5.877
 2415SOL    HW219277   2.010   5.681   5.848
 2416SOL     OW19278   0.690   5.027   0.270
 2416SOL    HW119279   0.613   5.080   0.307
 2416SOL    HW219280   0.769   5.087   0.258
 2417SOL     OW19281   7.176   5.114   6.393
 2417SOL    HW119282   7.250   5.067   6.343
 2417SOL    HW219283   7.213   5.196   6.437
 2418SOL     OW19284   1.207   0.367   4.762
 2418SOL    HW119285   1.143   0.336   4.692
 2418SOL    HW219286   1.234   0.461   4.742
 2419SOL     OW19287   5.070   3.285   1.359
 2419SOL    HW119288   5.114   3.375   1.368
 2419SOL    HW219289   5.100   3.226   1.433
 2420SOL     OW19290   8.463   1.206   6.419
 2420SOL    HW119291   8.518   1.125   6.403
 2420SOL    HW219292   8.395   1.187   6.490
 2421SOL     OW19293   1.616   7.878   5.862
 2421SOL    HW119294   1.545   7.817   5.826
 2421SOL    HW219295   1.702   7.861   5.814
 2422SOL     OW19296   9.331   1.806   5.658
 2422SOL    HW119297   9.411   1.852   5.620
 2422SOL    HW219298   9.350   1.709   5.670
 2423SOL     OW19299   8.494   0.436   5.482
 2423SOL    HW119300   8.505   0.371   5.406
 2423SOL    HW219301   8.583   0.473   5.507
 2424SOL     OW19302   5.473   7.339   1.290
 2424SOL    HW119303   5.492   7.437   1.289
 2424SOL    HW219304   5.387   7.322   1.338
 2425SOL     OW19305   6.835   4.034   0.984
 2425SOL    HW119306   6.860   4.111   1.043
 2425SOL    HW219307   6.918   3.992   0.947
 2426SOL     OW19308   1.948   2.944   6.404
 2426SOL    HW119309   1.901   2.937   6.492
 2426SOL    HW219310   1.907   2.879   6.339
 2427SOL     OW19311   3.527   0.956   6.759
 2427SOL    HW119312   3.573   1.043   6.742
 2427SOL    HW219313   3.431   0.963   6.731
 2428SOL     OW19314   2.599   8.201   0.901
 2428SOL    HW119315   2.658   8.205   0.981
 2428SOL    HW219316   2.638   8.138   0.833
 2429SOL     OW19317   0.517   7.881   0.972
 2429SOL    HW119318   0.512   7.981   0.979
 2429SOL    HW219319   0.600   7.856   0.922
 2430SOL     OW19320   8.914   5.618   5.417
 2430SOL    HW119321   8.856   5.542   5.388
 2430SOL    HW219322   8.985   5.634   5.349
 2431SOL     OW19323   3.082   3.642   6.175
 2431SOL    HW119324   3.128   3.727   6.200
 2431SOL    HW219325   3.071   3.638   6.076
 2432SOL     OW19326   1.616   1.260   0.579
 2432SOL    HW119327   1.580   1.325   0.512
 2432SOL    HW219328   1.595   1.167   0.549
 2433SOL     OW19329   4.974   2.200   0.576
 2433SOL    HW119330   5.009   2.290   0.552
 2433SOL    HW219331   4.906   2.209   0.648
 2434SOL     OW19332   3.254   7.792   0.792
 2434SOL    HW119333   3.296   7.793   0.701
 2434SOL    HW219334   3.326   7.782   0.861
 2435SOL     OW19335   6.206   6.071   4.820
 2435SOL    HW119336   6.295   6.095   4.860
 2435SOL    HW219337   6.221   6.013   4.739
 2436SOL     OW19338   0.389   6.967   4.262
 2436SOL    HW119339   0.311   6.915   4.228
 2436SOL    HW219340   0.448   6.993   4.185
 2437SOL     OW19341   1.624   1.092   6.566
 2437SOL    HW119342   1.670   1.099   6.654
 2437SOL    HW219343   1.615   1.183   6.525
 2438SOL     OW19344   2.913   3.931   6.020
 2438SOL    HW119345   2.882   3.885   5.937
 2438SOL    HW219346   2.944   3.864   6.087
 2439SOL     OW19347   1.632   6.630   4.568
 2439SOL    HW119348   1.535   6.609   4.586
 2439SOL    HW219349   1.638   6.695   4.492
 2440SOL     OW19350   1.292   5.381   1.091
 2440SOL    HW119351   1.375   5.327   1.076
 2440SOL    HW219352   1.285   5.403   1.188
 2441SOL     OW19353   3.676   2.191   6.762
 2441SOL    HW119354   3.721   2.260   6.707
 2441SOL    HW219355   3.733   2.109   6.766
 2442SOL     OW19356   5.614   7.787   6.730
 2442SOL    HW119357   5.595   7.880   6.701
 2442SOL    HW219358   5.691   7.787   6.795
 2443SOL     OW19359   1.075   7.104   0.993
 2443SOL    HW119360   1.019   7.032   0.953
 2443SOL    HW219361   1.085   7.088   1.091
 2444SOL     OW19362   6.118   6.728   5.873
 2444SOL    HW119363   6.190   6.679   5.824
 2444SOL    HW219364   6.051   6.763   5.807
 2445SOL     OW19365   2.058   4.439   5.149
 2445SOL    HW119366   1.994   4.487   5.088
 2445SOL    HW219367   2.110   4.372   5.096
 2446SOL     OW19368   8.172   8.116   6.696
 2446SOL    HW119369   8.186   8.215   6.696
 2446SOL    HW219370   8.092   8.094   6.751
 2447SOL     OW19371   8.728   1.713   6.122
 2447SOL    HW119372   8.650   1.739   6.064
 2447SOL    HW219373   8.769   1.629   6.087
 2448SOL     OW19374   4.327   5.509   6.848
 2448SOL    HW119375   4.423   5.500   6.825
 2448SOL    HW219376   4.300   5.605   6.841
 2449SOL     OW19377   6.993   6.540   6.537
 2449SOL    HW119378   7.030   6.448   6.545
 2449SOL    HW219379   7.048   6.604   6.591
 2450SOL     OW19380   1.097   7.092   0.655
 2450SOL    HW119381   1.071   7.164   0.719
 2450SOL    HW219382   1.174   7.041   0.692
 2451SOL     OW19383   2.932   1.812   2.173
 2451SOL    HW119384   2.836   1.784   2.168
 2451SOL    HW219385   2.960   1.847   2.084
 2452SOL     OW19386   5.800   6.587   5.808
 2452SOL    HW119387   5.844   6.554   5.892
 2452SOL    HW219388   5.721   6.529   5.788
 2453SOL     OW19389   2.654   0.237   5.046
 2453SOL    HW119390   2.712   0.205   4.971
 2453SOL    HW219391   2.667   0.335   5.059
 2454SOL     OW19392   3.724   2.162   1.174
 2454SOL    HW119393   3.754   2.070   1.149
 2454SOL    HW219394   3.637   2.183   1.128
 2455SOL     OW19395   0.901   3.872   5.886
 2455SOL    HW119396   0.926   3.808   5.813
 2455SOL    HW219397   0.973   3.941   5.894
 2456SOL     OW19398   8.206   8.236   0.634
 2456SOL    HW119399   8.126   8.252   0.577
 2456SOL    HW219400   8.259   8.320   0.643
 2457SOL     OW19401   8.436   3.862   5.936
 2457SOL    HW119402   8.503   3.879   5.863
 2457SOL    HW219403   8.350   3.831   5.895
 2458SOL     OW19404   5.633   7.681   1.417
 2458SOL    HW119405   5.728   7.708   1.430
 2458SOL    HW219406   5.592   7.659   1.506
 2459SOL     OW19407   2.998   0.727   2.213
 2459SOL    HW119408   3.062   0.723   2.136
 2459SOL    HW219409   3.043   0.691   2.295
 2460SOL     OW19410   4.289   5.933   6.088
 2460SOL    HW119411   4.378   5.977   6.087
 2460SOL    HW219412   4.217   6.003   6.082
 2461SOL     OW19413   3.685   6.658   6.815
 2461SOL    HW119414   3.621   6.727   6.850
 2461SOL    HW219415   3.664   6.569   6.856
 2462SOL     OW19416   4.669   0.856   0.664
 2462SOL    HW119417   4.603   0.930   0.674
 2462SOL    HW219418   4.639   0.794   0.591
 2463SOL     OW19419   7.217   2.343   0.575
 2463SOL    HW119420   7.301   2.384   0.611
 2463SOL    HW219421   7.238   2.255   0.533
 2464SOL     OW19422   5.709   8.153   6.120
 2464SOL    HW119423   5.776   8.167   6.193
 2464SOL    HW219424   5.737   8.076   6.062
 2465SOL     OW19425   4.181   1.447   6.361
 2465SOL    HW119426   4.249   1.413   6.426
 2465SOL    HW219427   4.224   1.516   6.303
 2466SOL     OW19428   2.648   1.516   0.388
 2466SOL    HW119429   2.613   1.488   0.477
 2466SOL    HW219430   2.739   1.477   0.374
 2467SOL     OW19431   5.445   3.692   0.968
 2467SOL    HW119432   5.348   3.686   0.992
 2467SOL    HW219433   5.480   3.782   0.995
 2468SOL     OW19434   0.138   1.492   5.673
 2468SOL    HW119435   0.191   1.537   5.601
 2468SOL    HW219436   0.041   1.518   5.665
 2469SOL     OW19437   1.271   5.710   4.495
 2469SOL    HW119438   1.214   5.767   4.436
 2469SOL    HW219439   1.248   5.614   4.481
 2470SOL     OW19440   3.264   7.371   6.266
 2470SOL    HW119441   3.193   7.431   6.303
 2470SOL    HW219442   3.247   7.277   6.297
 2471SOL     OW19443   6.876   6.642   6.060
 2471SOL    HW119444   6.797   6.580   6.062
 2471SOL    HW219445   6.960   6.588   6.050
 2472SOL     OW19446   5.993   7.041   1.129
 2472SOL    HW119447   6.090   7.064   1.135
 2472SOL    HW219448   5.976   6.956   1.177
 2473SOL     OW19449   9.038   7.940   6.889
 2473SOL    HW119450   9.130   7.903   6.907
 2473SOL    HW219451   9.024   7.947   6.791
 2474SOL     OW19452   2.829   2.647   5.731
 2474SOL    HW119453   2.847   2.737   5.691
 2474SOL    HW219454   2.739   2.616   5.703
 2475SOL     OW19455   0.448   7.448   4.418
 2475SOL    HW119456   0.506   7.478   4.342
 2475SOL    HW219457   0.420   7.353   4.403
 2476SOL     OW19458   6.585   3.240   6.055
 2476SOL    HW119459   6.580   3.252   5.956
 2476SOL    HW219460   6.629   3.153   6.076
 2477SOL     OW19461   5.238   0.526   6.847
 2477SOL    HW119462   5.261   0.604   6.906
 2477SOL    HW219463   5.143   0.533   6.818
 2478SOL     OW19464   1.624   2.904   1.086
 2478SOL    HW119465   1.527   2.883   1.100
 2478SOL    HW219466   1.655   2.969   1.155
 2479SOL     OW19467   5.837   2.618   0.365
 2479SOL    HW119468   5.820   2.616   0.463
 2479SOL    HW219469   5.928   2.655   0.347
 2480SOL     OW19470   9.382   1.071   6.844
 2480SOL    HW119471   9.476   1.073   6.809
 2480SOL    HW219472   9.329   1.003   6.793
 2481SOL     OW19473   5.695   0.753   1.925
 2481SOL    HW119474   5.596   0.746   1.940
 2481SOL    HW219475   5.713   0.766   1.827
 2482SOL     OW19476   5.716   3.839   6.842
 2482SOL    HW119477   5.654   3.761   6.845
 2482SOL    HW219478   5.802   3.815   6.885
 2483SOL     OW19479   2.761   1.136   1.015
 2483SOL    HW119480   2.745   1.098   1.106
 2483SOL    HW219481   2.819   1.073   0.962
 2484SOL     OW19482   4.120   0.724   0.514
 2484SOL    HW119483   4.109   0.626   0.499
 2484SOL    HW219484   4.030   0.766   0.527
 2485SOL     OW19485   0.880   0.417   1.311
 2485SOL    HW119486   0.892   0.376   1.221
 2485SOL    HW219487   0.804   0.483   1.309
 2486SOL     OW19488   9.140   3.058   6.839
 2486SOL    HW119489   9.081   3.098   6.768
 2486SOL    HW219490   9.233   3.094   6.828
 2487SOL     OW19491   3.665   5.097   0.683
 2487SOL    HW119492   3.733   5.168   0.699
 2487SOL    HW219493   3.586   5.135   0.635
 2488SOL     OW19494   5.176   7.815   2.293
 2488SOL    HW119495   5.216   7.756   2.223
 2488SOL    HW219496   5.161   7.761   2.376
 2489SOL     OW19497   0.331   5.198   0.970
 2489SOL    HW119498   0.257   5.132   0.981
 2489SOL    HW219499   0.295   5.290   0.982
 2490SOL     OW19500   0.576   8.303   1.829
 2490SOL    HW119501   0.538   8.238   1.895
 2490SOL    HW219502   0.598   8.388   1.876
 2491SOL     OW19503   8.315   1.802   0.958
 2491SOL    HW119504   8.382   1.737   0.921
 2491SOL    HW219505   8.269   1.762   1.037
 2492SOL     OW19506   7.316   5.285   1.611
 2492SOL    HW119507   7.246   5.221   1.578
 2492SOL    HW219508   7.376   5.238   1.676
 2493SOL     OW19509   5.142   1.013   6.246
 2493SOL    HW119510   5.106   1.095   6.202
 2493SOL    HW219511   5.167   0.946   6.176
 2494SOL     OW19512   3.606   2.722   0.383
 2494SOL    HW119513   3.641   2.801   0.332
 2494SOL    HW219514   3.518   2.746   0.425
 2495SOL     OW19515   1.657   7.366   6.972
 2495SOL    HW119516   1.633   7.369   6.875
 2495SOL    HW219517   1.748   7.326   6.983
 2496SOL     OW19518   8.665   2.794   1.833
 2496SOL    HW119519   8.695   2.700   1.850
 2496SOL    HW219520   8.680   2.849   1.915
 2497SOL     OW19521   7.060   8.030   5.832
 2497SOL    HW119522   7.139   7.979   5.799
 2497SOL    HW219523   6.976   7.979   5.813
 2498SOL     OW19524   5.274   0.706   1.591
 2498SOL    HW119525   5.282   0.606   1.586
 2498SOL    HW219526   5.363   0.745   1.615
 2499SOL     OW19527   0.650   6.075   4.928
 2499SOL    HW119528   0.617   5.985   4.898
 2499SOL    HW219529   0.742   6.066   4.966
 2500SOL     OW19530   2.570   5.081   0.826
 2500SOL    HW119531   2.524   5.099   0.740
 2500SOL    HW219532   2.516   5.016   0.880
 2501SOL     OW19533   5.749   1.752   1.969
 2501SOL    HW119534   5.660   1.777   1.930
 2501SOL    HW219535   5.736   1.715   2.061
 2502SOL     OW19536   0.834   5.403   6.630
 2502SOL    HW119537   0.825   5.335   6.556
 2502SOL    HW219538   0.904   5.373   6.694
 2503SOL     OW19539   8.703   7.509   0.566
 2503SOL    HW119540   8.774   7.500   0.637
 2503SOL    HW219541   8.716   7.437   0.498
 2504SOL     OW19542   6.951   4.450   1.514
 2504SOL    HW119543   6.989   4.361   1.539
 2504SOL    HW219544   6.989   4.520   1.575
 2505SOL     OW19545   4.818   6.639   1.449
 2505SOL    HW119546   4.846   6.593   1.364
 2505SOL    HW219547   4.864   6.596   1.527
 2506SOL     OW19548   5.676   6.163   6.709
 2506SOL    HW119549   5.610   6.222   6.755
 2506SOL    HW219550   5.758   6.155   6.766
 2507SOL     OW19551   8.286   4.623   5.589
 2507SOL    HW119552   8.209   4.570   5.554
 2507SOL    HW219553   8.334   4.667   5.513
 2508SOL     OW19554   5.226   7.426   1.040
 2508SOL    HW119555   5.158   7.454   1.107
 2508SOL    HW219556   5.258   7.507   0.990
 2509SOL     OW19557   3.538   4.277   1.158
 2509SOL    HW119558   3.528   4.286   1.059
 2509SOL    HW219559   3.560   4.182   1.181
 2510SOL     OW19560   7.159  -0.037   0.736
 2510SOL    HW119561   7.073  -0.080   0.764
 2510SOL    HW219562   7.209  -0.006   0.817
 2511SOL     OW19563   0.880   6.129   5.503
 2511SOL    HW119564   0.953   6.062   5.515
 2511SOL    HW219565   0.792   6.083   5.502
 2512SOL     OW19566   9.361   1.257   5.591
 2512SOL    HW119567   9.408   1.205   5.663
 2512SOL    HW219568   9.399   1.231   5.502
 2513SOL     OW19569   4.996   5.752   6.330
 2513SOL    HW119570   4.932   5.718   6.400
 2513SOL    HW219571   4.958   5.736   6.239
 2514SOL     OW19572   0.752   1.000   0.786
 2514SOL    HW119573   0.725   1.072   0.849
 2514SOL    HW219574   0.822   1.034   0.723
 2515SOL     OW19575   4.185   4.701   0.318
 2515SOL    HW119576   4.090   4.723   0.340
 2515SOL    HW219577   4.189   4.616   0.266
 2516SOL     OW19578   2.271   5.402   5.237
 2516SOL    HW119579   2.332   5.473   5.202
 2516SOL    HW219580   2.192   5.443   5.281
 2517SOL     OW19581   0.209   2.341   6.930
 2517SOL    HW119582   0.248   2.345   7.022
 2517SOL    HW219583   0.276   2.300   6.867
 2518SOL     OW19584   0.921   6.029   5.805
 2518SOL    HW119585   0.824   6.008   5.820
 2518SOL    HW219586   0.950   6.100   5.869
 2519SOL     OW19587   2.919   4.295   1.455
 2519SOL    HW119588   2.893   4.367   1.391
 2519SOL    HW219589   2.865   4.304   1.539
 2520SOL     OW19590   7.138   0.097   6.957
 2520SOL    HW119591   7.081   0.025   6.918
 2520SOL    HW219592   7.203   0.056   7.021
 2521SOL     OW19593   4.921   8.164   6.900
 2521SOL    HW119594   5.008   8.153   6.947
 2521SOL    HW219595   4.892   8.260   6.906
 2522SOL     OW19596   7.980   8.362   0.499
 2522SOL    HW119597   8.016   8.455   0.489
 2522SOL    HW219598   7.881   8.367   0.516
 2523SOL     OW19599   1.702   2.997   6.686
 2523SOL    HW119600   1.645   2.992   6.604
 2523SOL    HW219601   1.732   3.091   6.700
 2524SOL     OW19602   7.941   0.448   5.866
 2524SOL    HW119603   7.902   0.498   5.789
 2524SOL    HW219604   7.994   0.370   5.832
 2525SOL     OW19605   0.763   5.588   0.709
 2525SOL    HW119606   0.830   5.527   0.668
 2525SOL    HW219607   0.789   5.607   0.804
 2526SOL     OW19608   0.132   3.872   6.574
 2526SOL    HW119609   0.171   3.920   6.653
 2526SOL    HW219610   0.043   3.910   6.551
 2527SOL     OW19611   7.250   1.243   5.652
 2527SOL    HW119612   7.314   1.273   5.581
 2527SOL    HW219613   7.194   1.168   5.616
 2528SOL     OW19614   5.959   5.162   5.324
 2528SOL    HW119615   5.859   5.151   5.331
 2528SOL    HW219616   5.979   5.240   5.264
 2529SOL     OW19617   0.502   3.853   0.610
 2529SOL    HW119618   0.435   3.781   0.630
 2529SOL    HW219619   0.588   3.832   0.656
 2530SOL     OW19620   3.779   1.033   6.647
 2530SOL    HW119621   3.865   1.073   6.675
 2530SOL    HW219622   3.711   1.105   6.633
 2531SOL     OW19623   9.443   2.651   1.932
 2531SOL    HW119624   9.370   2.718   1.949
 2531SOL    HW219625   9.438   2.580   2.002
 2532SOL     OW19626   1.214   6.487   6.213
 2532SOL    HW119627   1.148   6.427   6.169
 2532SOL    HW219628   1.165   6.555   6.268
 2533SOL     OW19629   5.079   0.452   0.441
 2533SOL    HW119630   4.983   0.434   0.466
 2533SOL    HW219631   5.106   0.391   0.367
 2534SOL     OW19632   0.647   6.573   1.418
 2534SOL    HW119633   0.647   6.673   1.405
 2534SOL    HW219634   0.662   6.553   1.515
 2535SOL     OW19635   2.749   3.879   1.386
 2535SOL    HW119636   2.739   3.788   1.426
 2535SOL    HW219637   2.775   3.945   1.457
 2536SOL     OW19638   1.636   5.428   0.790
 2536SOL    HW119639   1.642   5.523   0.821
 2536SOL    HW219640   1.719   5.405   0.739
 2537SOL     OW19641   0.158   6.527   0.658
 2537SOL    HW119642   0.071   6.531   0.707
 2537SOL    HW219643   0.146   6.562   0.565
 2538SOL     OW19644   8.084   4.118   6.908
 2538SOL    HW119645   8.173   4.080   6.885
 2538SOL    HW219646   8.012   4.053   6.882
 2539SOL     OW19647   6.170   6.718   0.563
 2539SOL    HW119648   6.199   6.760   0.648
 2539SOL    HW219649   6.245   6.717   0.498
 2540SOL     OW19650   1.866   2.826   6.808
 2540SOL    HW119651   1.964   2.835   6.826
 2540SOL    HW219652   1.834   2.908   6.759
 2541SOL     OW19653   6.820   5.439   5.523
 2541SOL    HW119654   6.745   5.489   5.565
 2541SOL    HW219655   6.905   5.458   5.573
 2542SOL     OW19656   8.384   6.561   6.768
 2542SOL    HW119657   8.307   6.606   6.723
 2542SOL    HW219658   8.382   6.463   6.749
 2543SOL     OW19659   4.231   6.764   1.864
 2543SOL    HW119660   4.177   6.846   1.885
 2543SOL    HW219661   4.206   6.730   1.774
 2544SOL     OW19662   6.322   5.021   6.556
 2544SOL    HW119663   6.408   4.972   6.539
 2544SOL    HW219664   6.289   5.061   6.470
 2545SOL     OW19665   6.988   0.227   6.613
 2545SOL    HW119666   6.951   0.283   6.538
 2545SOL    HW219667   6.973   0.273   6.700
 2546SOL     OW19668   9.383   5.093   6.227
 2546SOL    HW119669   9.295   5.054   6.256
 2546SOL    HW219670   9.457   5.048   6.275
 2547SOL     OW19671   9.407   1.384   1.466
 2547SOL    HW119672   9.315   1.423   1.470
 2547SOL    HW219673   9.450   1.391   1.556
 2548SOL     OW19674   5.017   2.433   0.828
 2548SOL    HW119675   4.956   2.355   0.843
 2548SOL    HW219676   4.963   2.513   0.801
 2549SOL     OW19677   9.115   2.586   6.072
 2549SOL    HW119678   9.079   2.652   6.007
 2549SOL    HW219679   9.145   2.504   6.024
 2550SOL     OW19680   1.436   5.756   6.386
 2550SOL    HW119681   1.389   5.708   6.311
 2550SOL    HW219682   1.535   5.746   6.374
 2551SOL     OW19683   2.785   1.840   1.172
 2551SOL    HW119684   2.816   1.903   1.101
 2551SOL    HW219685   2.701   1.795   1.142
 2552SOL     OW19686   6.921   0.323   6.877
 2552SOL    HW119687   6.996   0.286   6.932
 2552SOL    HW219688   6.848   0.255   6.869
 2553SOL     OW19689   7.698   6.466   5.101
 2553SOL    HW119690   7.730   6.544   5.047
 2553SOL    HW219691   7.770   6.398   5.109
 2554SOL     OW19692   4.507   6.700   5.753
 2554SOL    HW119693   4.436   6.631   5.767
 2554SOL    HW219694   4.477   6.764   5.682
 2555SOL     OW19695   5.016   2.579   6.498
 2555SOL    HW119696   5.000   2.633   6.581
 2555SOL    HW219697   4.992   2.484   6.515
 2556SOL     OW19698   7.548   5.682   6.039
 2556SOL    HW119699   7.558   5.583   6.053
 2556SOL    HW219700   7.496   5.721   6.115
 2557SOL     OW19701   7.356   0.875   6.010
 2557SOL    HW119702   7.441   0.902   5.965
 2557SOL    HW219703   7.280   0.888   5.946
 2558SOL     OW19704   1.784   3.693   5.465
 2558SOL    HW119705   1.804   3.736   5.377
 2558SOL    HW219706   1.858   3.629   5.489
 2559SOL     OW19707   5.578   3.617   6.800
 2559SOL    HW119708   5.572   3.534   6.745
 2559SOL    HW219709   5.553   3.597   6.895
 2560SOL     OW19710   9.159   1.692   6.565
 2560SOL    HW119711   9.243   1.719   6.612
 2560SOL    HW219712   9.146   1.593   6.573
 2561SOL     OW19713   0.237   4.699   5.757
 2561SOL    HW119714   0.297   4.651   5.693
 2561SOL    HW219715   0.162   4.742   5.706
 2562SOL     OW19716   4.527   6.534   6.771
 2562SOL    HW119717   4.570   6.447   6.795
 2562SOL    HW219718   4.572   6.572   6.690
 2563SOL     OW19719   6.479   2.573   5.566
 2563SOL    HW119720   6.445   2.646   5.625
 2563SOL    HW219721   6.565   2.601   5.524
 2564SOL     OW19722   2.110   3.004   6.122
 2564SOL    HW119723   2.050   3.072   6.080
 2564SOL    HW219724   2.143   3.038   6.210
 2565SOL     OW19725   2.457   0.781   1.033
 2565SOL    HW119726   2.423   0.844   0.963
 2565SOL    HW219727   2.474   0.832   1.118
 2566SOL     OW19728   8.188   3.596   1.652
 2566SOL    HW119729   8.163   3.645   1.735
 2566SOL    HW219730   8.260   3.530   1.672
 2567SOL     OW19731   0.872   8.351   1.778
 2567SOL    HW119732   0.904   8.362   1.873
 2567SOL    HW219733   0.788   8.297   1.778
 2568SOL     OW19734   4.199   1.443   5.746
 2568SOL    HW119735   4.267   1.509   5.780
 2568SOL    HW219736   4.179   1.464   5.650
 2569SOL     OW19737   8.544   6.210   1.339
 2569SOL    HW119738   8.623   6.153   1.318
 2569SOL    HW219739   8.557   6.253   1.428
 2570SOL     OW19740   5.550   1.266   6.477
 2570SOL    HW119741   5.598   1.180   6.459
 2570SOL    HW219742   5.454   1.246   6.497
 2571SOL     OW19743   1.837   1.585   6.820
 2571SOL    HW119744   1.756   1.631   6.783
 2571SOL    HW219745   1.872   1.636   6.899
 2572SOL     OW19746   3.538   7.978   1.310
 2572SOL    HW119747   3.449   7.989   1.265
 2572SOL    HW219748   3.524   7.970   1.409
 2573SOL     OW19749   5.016   0.715   6.637
 2573SOL    HW119750   4.995   0.646   6.707
 2573SOL    HW219751   5.031   0.670   6.549
 2574SOL     OW19752   1.036   8.349   1.544
 2574SOL    HW119753   1.129   8.383   1.562
 2574SOL    HW219754   0.973   8.384   1.613
 2575SOL     OW19755   2.920   2.658   6.939
 2575SOL    HW119756   2.877   2.584   6.991
 2575SOL    HW219757   3.015   2.669   6.969
 2576SOL     OW19758   5.585   6.840   1.551
 2576SOL    HW119759   5.673   6.795   1.567
 2576SOL    HW219760   5.519   6.774   1.517
 2577SOL     OW19761   2.217   7.002   6.590
 2577SOL    HW119762   2.184   6.910   6.568
 2577SOL    HW219763   2.193   7.024   6.685
 2578SOL     OW19764   0.858   2.622   1.220
 2578SOL    HW119765   0.906   2.710   1.223
 2578SOL    HW219766   0.761   2.637   1.238
 2579SOL     OW19767   1.499   5.939   5.878
 2579SOL    HW119768   1.449   5.975   5.956
 2579SOL    HW219769   1.546   5.854   5.905
 2580SOL     OW19770   6.601   6.832   1.059
 2580SOL    HW119771   6.577   6.927   1.078
 2580SOL    HW219772   6.559   6.803   0.973
 2581SOL     OW19773   2.049   5.659   1.138
 2581SOL    HW119774   2.008   5.726   1.076
 2581SOL    HW219775   2.016   5.568   1.115
 2582SOL     OW19776   4.883   4.702   1.325
 2582SOL    HW119777   4.973   4.660   1.331
 2582SOL    HW219778   4.845   4.712   1.417
 2583SOL     OW19779   9.538   7.615   1.009
 2583SOL    HW119780   9.600   7.629   1.086
 2583SOL    HW219781   9.494   7.526   1.018
 2584SOL     OW19782   1.850   7.184   5.195
 2584SOL    HW119783   1.859   7.273   5.150
 2584SOL    HW219784   1.895   7.114   5.139
 2585SOL     OW19785   6.332   3.183   0.879
 2585SOL    HW119786   6.288   3.227   0.957
 2585SOL    HW219787   6.422   3.150   0.905
 2586SOL     OW19788   3.472   8.247   0.588
 2586SOL    HW119789   3.499   8.267   0.493
 2586SOL    HW219790   3.393   8.302   0.612
 2587SOL     OW19791   2.130   1.563   0.511
 2587SOL    HW119792   2.220   1.540   0.549
 2587SOL    HW219793   2.063   1.565   0.585
 2588SOL     OW19794   3.790   5.457   2.027
 2588SOL    HW119795   3.769   5.554   2.037
 2588SOL    HW219796   3.762   5.408   2.109
 2589SOL     OW19797   7.809   5.994   6.014
 2589SOL    HW119798   7.836   5.916   5.959
 2589SOL    HW219799   7.713   5.985   6.040
 2590SOL     OW19800   5.324   6.795   1.732
 2590SOL    HW119801   5.356   6.855   1.658
 2590SOL    HW219802   5.326   6.845   1.819
 2591SOL     OW19803   5.160   7.999   1.422
 2591SOL    HW119804   5.143   7.973   1.327
 2591SOL    HW219805   5.079   8.042   1.460
 2592SOL     OW19806   8.975   4.620   6.550
 2592SOL    HW119807   8.987   4.713   6.515
 2592SOL    HW219808   9.064   4.582   6.575
 2593SOL     OW19809   1.890   6.638   6.232
 2593SOL    HW119810   1.839   6.707   6.180
 2593SOL    HW219811   1.984   6.669   6.243
 2594SOL     OW19812   5.097   4.794   6.272
 2594SOL    HW119813   5.139   4.873   6.227
 2594SOL    HW219814   5.012   4.770   6.225
 2595SOL     OW19815   4.015   1.167   6.677
 2595SOL    HW119816   4.021   1.199   6.771
 2595SOL    HW219817   3.972   1.238   6.620
 2596SOL     OW19818   5.876   7.985   1.378
 2596SOL    HW119819   5.786   7.962   1.415
 2596SOL    HW219820   5.868   8.063   1.316
 2597SOL     OW19821   1.241   0.539   5.704
 2597SOL    HW119822   1.305   0.474   5.744
 2597SOL    HW219823   1.225   0.516   5.608
 2598SOL     OW19824   0.565   5.360   0.580
 2598SOL    HW119825   0.631   5.300   0.626
 2598SOL    HW219826   0.565   5.450   0.622
 2599SOL     OW19827   4.125   1.654   1.426
 2599SOL    HW119828   4.185   1.578   1.398
 2599SOL    HW219829   4.068   1.681   1.349
 2600SOL     OW19830   1.855   5.533   5.590
 2600SOL    HW119831   1.839   5.435   5.598
 2600SOL    HW219832   1.932   5.548   5.527
 2601SOL     OW19833   7.616   7.588   5.760
 2601SOL    HW119834   7.615   7.495   5.795
 2601SOL    HW219835   7.620   7.586   5.660
 2602SOL     OW19836   5.037   0.008   4.916
 2602SOL    HW119837   5.018  -0.073   4.861
 2602SOL    HW219838   4.983   0.004   5.000
 2603SOL     OW19839   0.853   5.233   6.438
 2603SOL    HW119840   0.928   5.169   6.458
 2603SOL    HW219841   0.777   5.182   6.397
 2604SOL     OW19842   5.616   6.704   1.053
 2604SOL    HW119843   5.597   6.780   0.991
 2604SOL    HW219844   5.533   6.650   1.066
 2605SOL     OW19845   2.429   3.941   0.739
 2605SOL    HW119846   2.399   4.037   0.747
 2605SOL    HW219847   2.357   3.881   0.774
 2606SOL     OW19848   5.684   2.762   6.638
 2606SOL    HW119849   5.699   2.665   6.621
 2606SOL    HW219850   5.653   2.806   6.553
 2607SOL     OW19851   1.230   0.383   0.856
 2607SOL    HW119852   1.240   0.477   0.889
 2607SOL    HW219853   1.162   0.380   0.783
 2608SOL     OW19854   5.001   7.580   5.717
 2608SOL    HW119855   5.042   7.608   5.804
 2608SOL    HW219856   5.051   7.502   5.679
 2609SOL     OW19857   3.798   0.721   5.519
 2609SOL    HW119858   3.851   0.804   5.501
 2609SOL    HW219859   3.703   0.747   5.536
 2610SOL     OW19860   8.031   4.807   5.928
 2610SOL    HW119861   8.088   4.735   5.966
 2610SOL    HW219862   8.037   4.805   5.828
 2611SOL     OW19863   8.117   1.158   1.120
 2611SOL    HW119864   8.087   1.156   1.025
 2611SOL    HW219865   8.037   1.157   1.180
 2612SOL     OW19866   6.843   2.470   6.812
 2612SOL    HW119867   6.755   2.512   6.832
 2612SOL    HW219868   6.840   2.374   6.839
 2613SOL     OW19869   6.978   3.128   0.293
 2613SOL    HW119870   6.895   3.184   0.292
 2613SOL    HW219871   7.025   3.140   0.380
 2614SOL     OW19872   0.927   5.343   4.908
 2614SOL    HW119873   0.860   5.349   4.834
 2614SOL    HW219874   0.893   5.395   4.987
 2615SOL     OW19875   6.100   1.837   6.552
 2615SOL    HW119876   6.116   1.756   6.496
 2615SOL    HW219877   6.177   1.899   6.544
 2616SOL     OW19878   6.266   7.981   5.325
 2616SOL    HW119879   6.181   7.996   5.376
 2616SOL    HW219880   6.249   7.918   5.249
 2617SOL     OW19881   2.062   0.630   5.875
 2617SOL    HW119882   2.101   0.671   5.792
 2617SOL    HW219883   2.109   0.667   5.955
 2618SOL     OW19884   5.930   5.931   1.318
 2618SOL    HW119885   5.951   5.973   1.406
 2618SOL    HW219886   5.961   5.836   1.318
 2619SOL     OW19887   0.502   1.159   0.878
 2619SOL    HW119888   0.493   1.241   0.934
 2619SOL    HW219889   0.523   1.184   0.784
 2620SOL     OW19890   4.400   1.203   1.259
 2620SOL    HW119891   4.455   1.120   1.265
 2620SOL    HW219892   4.344   1.200   1.177
 2621SOL     OW19893   5.984   7.457   1.226
 2621SOL    HW119894   5.968   7.444   1.128
 2621SOL    HW219895   6.024   7.547   1.242
 2622SOL     OW19896   8.134   3.135   6.903
 2622SOL    HW119897   8.148   3.152   7.001
 2622SOL    HW219898   8.040   3.157   6.879
 2623SOL     OW19899   0.171   1.990   0.351
 2623SOL    HW119900   0.127   1.926   0.289
 2623SOL    HW219901   0.118   1.995   0.436
 2624SOL     OW19902   3.839   6.305   0.303
 2624SOL    HW119903   3.826   6.216   0.347
 2624SOL    HW219904   3.834   6.377   0.372
 2625SOL     OW19905   7.384   2.131   6.383
 2625SOL    HW119906   7.390   2.099   6.289
 2625SOL    HW219907   7.291   2.119   6.416
 2626SOL     OW19908   7.065   0.233   0.780
 2626SOL    HW119909   7.002   0.283   0.721
 2626SOL    HW219910   7.102   0.154   0.730
 2627SOL     OW19911   8.608   8.180   6.708
 2627SOL    HW119912   8.613   8.132   6.620
 2627SOL    HW219913   8.528   8.239   6.709
 2628SOL     OW19914   8.815   7.277   5.871
 2628SOL    HW119915   8.908   7.289   5.907
 2628SOL    HW219916   8.793   7.180   5.867
 2629SOL     OW19917   2.162   4.481   6.946
 2629SOL    HW119918   2.150   4.534   6.861
 2629SOL    HW219919   2.258   4.482   6.973
 2630SOL     OW19920   7.885   0.839   6.954
 2630SOL    HW119921   7.940   0.900   6.897
 2630SOL    HW219922   7.795   0.827   6.913
 2631SOL     OW19923   2.455   3.433   6.398
 2631SOL    HW119924   2.473   3.335   6.393
 2631SOL    HW219925   2.542   3.482   6.406
 2632SOL     OW19926   7.715   3.614   0.499
 2632SOL    HW119927   7.688   3.710   0.508
 2632SOL    HW219928   7.639   3.561   0.460
 2633SOL     OW19929   5.431   3.307   6.160
 2633SOL    HW119930   5.499   3.378   6.178
 2633SOL    HW219931   5.403   3.265   6.246
 2634SOL     OW19932   6.547   6.443   0.478
 2634SOL    HW119933   6.560   6.352   0.518
 2634SOL    HW219934   6.593   6.511   0.536
 2635SOL     OW19935   0.814   6.432   6.174
 2635SOL    HW119936   0.805   6.436   6.274
 2635SOL    HW219937   0.723   6.419   6.134
 2636SOL     OW19938   7.069   4.435   1.171
 2636SOL    HW119939   7.149   4.453   1.229
 2636SOL    HW219940   7.056   4.512   1.109
 2637SOL     OW19941   4.088   6.988   5.633
 2637SOL    HW119942   3.992   7.017   5.630
 2637SOL    HW219943   4.124   6.982   5.540
 2638SOL     OW19944   4.700   4.941   0.920
 2638SOL    HW119945   4.721   4.851   0.957
 2638SOL    HW219946   4.687   5.006   0.995
 2639SOL     OW19947   7.926   1.116   0.609
 2639SOL    HW119948   7.871   1.048   0.562
 2639SOL    HW219949   7.914   1.205   0.565
 2640SOL     OW19950   5.072   0.703   0.325
 2640SOL    HW119951   5.094   0.610   0.357
 2640SOL    HW219952   5.021   0.751   0.396
 2641SOL     OW19953   2.730   0.532   1.834
 2641SOL    HW119954   2.703   0.440   1.805
 2641SOL    HW219955   2.829   0.543   1.824
 2642SOL     OW19956   0.376   6.097   5.044
 2642SOL    HW119957   0.458   6.112   4.989
 2642SOL    HW219958   0.400   6.092   5.140
 2643SOL     OW19959   1.190   4.891   6.381
 2643SOL    HW119960   1.108   4.845   6.346
 2643SOL    HW219961   1.246   4.825   6.430
 2644SOL     OW19962   0.448   2.940   6.865
 2644SOL    HW119963   0.475   2.948   6.769
 2644SOL    HW219964   0.441   3.031   6.905
 2645SOL     OW19965   1.281   6.379   5.103
 2645SOL    HW119966   1.255   6.426   5.019
 2645SOL    HW219967   1.372   6.410   5.131
 2646SOL     OW19968   6.458   2.291   5.621
 2646SOL    HW119969   6.475   2.380   5.578
 2646SOL    HW219970   6.539   2.233   5.611
 2647SOL     OW19971   3.795   0.200   6.241
 2647SOL    HW119972   3.822   0.271   6.306
 2647SOL    HW219973   3.870   0.184   6.177
 2648SOL     OW19974   7.489   8.168   5.413
 2648SOL    HW119975   7.548   8.095   5.380
 2648SOL    HW219976   7.504   8.181   5.511
 2649SOL     OW19977   8.906   4.033   0.877
 2649SOL    HW119978   8.897   3.978   0.960
 2649SOL    HW219979   8.829   4.014   0.816
 2650SOL     OW19980   1.620   5.687   4.834
 2650SOL    HW119981   1.586   5.730   4.750
 2650SOL    HW219982   1.598   5.589   4.833
 2651SOL     OW19983   9.477   8.047   5.570
 2651SOL    HW119984   9.497   8.140   5.602
 2651SOL    HW219985   9.426   8.052   5.484
 2652SOL     OW19986   3.296   2.956   5.788
 2652SOL    HW119987   3.199   2.963   5.811
 2652SOL    HW219988   3.323   3.035   5.732
 2653SOL     OW19989   7.784   6.835   5.882
 2653SOL    HW119990   7.764   6.897   5.806
 2653SOL    HW219991   7.879   6.847   5.912
 2654SOL     OW19992   4.212   3.303   1.577
 2654SOL    HW119993   4.125   3.254   1.578
 2654SOL    HW219994   4.214   3.370   1.651
 2655SOL     OW19995   6.231   7.204   0.528
 2655SOL    HW119996   6.306   7.138   0.532
 2655SOL    HW219997   6.167   7.187   0.602
 2656SOL     OW19998   8.860   5.280   1.494
 2656SOL    HW119999   8.773   5.249   1.454
 2656SOL    HW220000   8.841   5.349   1.564
 2657SOL     OW20001   1.656   8.196   6.856
 2657SOL    HW120002   1.575   8.224   6.909
 2657SOL    HW220003   1.650   8.233   6.764
 2658SOL     OW20004   5.338   4.812   1.853
 2658SOL    HW120005   5.272   4.775   1.789
 2658SOL    HW220006   5.306   4.797   1.947
 2659SOL     OW20007   2.311   7.121   1.720
 2659SOL    HW120008   2.305   7.179   1.639
 2659SOL    HW220009   2.290   7.175   1.802
 2660SOL     OW20010   4.947   6.578   6.544
 2660SOL    HW120011   5.032   6.526   6.557
 2660SOL    HW220012   4.960   6.671   6.579
 2661SOL     OW20013   9.210   7.384   1.037
 2661SOL    HW120014   9.231   7.359   0.943
 2661SOL    HW220015   9.258   7.322   1.099
 2662SOL     OW20016   8.954   6.996   4.816
 2662SOL    HW120017   8.971   6.913   4.762
 2662SOL    HW220018   8.941   7.073   4.754
 2663SOL     OW20019   6.706   8.368   1.866
 2663SOL    HW120020   6.659   8.348   1.951
 2663SOL    HW220021   6.743   8.460   1.869
 2664SOL     OW20022   1.568   2.025   6.118
 2664SOL    HW120023   1.564   1.931   6.154
 2664SOL    HW220024   1.582   2.089   6.194
 2665SOL     OW20025   8.555   0.232   6.009
 2665SOL    HW120026   8.563   0.220   6.108
 2665SOL    HW220027   8.459   0.252   5.986
 2666SOL     OW20028   3.293   2.363   6.616
 2666SOL    HW120029   3.333   2.275   6.641
 2666SOL    HW220030   3.193   2.355   6.613
 2667SOL     OW20031   3.341   7.963   5.527
 2667SOL    HW120032   3.294   8.024   5.463
 2667SOL    HW220033   3.436   7.992   5.537
 2668SOL     OW20034   4.032   1.254   5.413
 2668SOL    HW120035   4.021   1.216   5.321
 2668SOL    HW220036   4.084   1.190   5.470
 2669SOL     OW20037   9.271   6.273   6.445
 2669SOL    HW120038   9.225   6.216   6.378
 2669SOL    HW220039   9.211   6.288   6.524
 2670SOL     OW20040   8.888   3.093   5.862
 2670SOL    HW120041   8.896   3.176   5.916
 2670SOL    HW220042   8.818   3.106   5.792
 2671SOL     OW20043   3.874   6.885   0.865
 2671SOL    HW120044   3.924   6.929   0.939
 2671SOL    HW220045   3.851   6.791   0.891
 2672SOL     OW20046   9.329   6.116   5.785
 2672SOL    HW120047   9.367   6.074   5.702
 2672SOL    HW220048   9.241   6.158   5.763
 2673SOL     OW20049   1.024   6.435   6.471
 2673SOL    HW120050   0.928   6.416   6.491
 2673SOL    HW220051   1.034   6.530   6.441
 2674SOL     OW20052   8.392   1.089   1.638
 2674SOL    HW120053   8.437   1.011   1.594
 2674SOL    HW220054   8.440   1.112   1.722
 2675SOL     OW20055   7.787   2.202   0.269
 2675SOL    HW120056   7.876   2.157   0.256
 2675SOL    HW220057   7.715   2.144   0.230
 2676SOL     OW20058   1.482   8.152   5.697
 2676SOL    HW120059   1.400   8.113   5.739
 2676SOL    HW220060   1.554   8.161   5.766
 2677SOL     OW20061   3.165   0.359   1.328
 2677SOL    HW120062   3.097   0.424   1.293
 2677SOL    HW220063   3.203   0.394   1.414
 2678SOL     OW20064   9.503   0.815   6.198
 2678SOL    HW120065   9.561   0.889   6.163
 2678SOL    HW220066   9.535   0.789   6.289
 2679SOL     OW20067   4.516   8.027   0.595
 2679SOL    HW120068   4.571   8.108   0.574
 2679SOL    HW220069   4.478   8.036   0.687
 2680SOL     OW20070   1.597   2.358   6.970
 2680SOL    HW120071   1.499   2.368   6.987
 2680SOL    HW220072   1.631   2.442   6.928
 2681SOL     OW20073   4.296   7.870   5.767
 2681SOL    HW120074   4.359   7.906   5.835
 2681SOL    HW220075   4.346   7.819   5.698
 2682SOL     OW20076   7.978   5.782   6.543
 2682SOL    HW120077   7.943   5.739   6.627
 2682SOL    HW220078   7.963   5.721   6.466
 2683SOL     OW20079   7.528   5.617   1.114
 2683SOL    HW120080   7.535   5.520   1.093
 2683SOL    HW220081   7.554   5.633   1.209
 2684SOL     OW20082   5.913   4.165   1.224
 2684SOL    HW120083   5.823   4.131   1.249
 2684SOL    HW220084   5.983   4.115   1.275
 2685SOL     OW20085   5.162   1.783   6.629
 2685SOL    HW120086   5.235   1.717   6.610
 2685SOL    HW220087   5.202   1.864   6.672
 2686SOL     OW20088   3.076   5.111   1.376
 2686SOL    HW120089   3.155   5.070   1.420
 2686SOL    HW220090   3.034   5.178   1.438
 2687SOL     OW20091   4.264   8.271   6.807
 2687SOL    HW120092   4.321   8.227   6.738
 2687SOL    HW220093   4.282   8.370   6.806
 2688SOL     OW20094   3.262   8.272   5.436
 2688SOL    HW120095   3.273   8.345   5.369
 2688SOL    HW220096   3.224   8.191   5.391
 2689SOL     OW20097   3.191   0.416   6.504
 2689SOL    HW120098   3.264   0.349   6.506
 2689SOL    HW220099   3.187   0.464   6.592
 2690SOL     OW20100   8.378   1.549   6.089
 2690SOL    HW120101   8.316   1.478   6.057
 2690SOL    HW220102   8.472   1.516   6.088
 2691SOL     OW20103   2.830   1.841   6.807
 2691SOL    HW120104   2.883   1.771   6.759
 2691SOL    HW220105   2.733   1.827   6.791
 2692SOL     OW20106   2.191   8.196   6.647
 2692SOL    HW120107   2.196   8.097   6.661
 2692SOL    HW220108   2.148   8.238   6.727
 2693SOL     OW20109   8.739   4.781   0.857
 2693SOL    HW120110   8.827   4.828   0.853
 2693SOL    HW220111   8.735   4.727   0.941
 2694SOL     OW20112   8.542   4.791   0.671
 2694SOL    HW120113   8.486   4.709   0.662
 2694SOL    HW220114   8.608   4.779   0.745
 2695SOL     OW20115   4.180   5.954   2.353
 2695SOL    HW120116   4.149   5.859   2.356
 2695SOL    HW220117   4.196   5.987   2.446
 2696SOL     OW20118   2.461   8.222   5.913
 2696SOL    HW120119   2.560   8.218   5.912
 2696SOL    HW220120   2.428   8.265   5.829
 2697SOL     OW20121   8.609   3.085   0.289
 2697SOL    HW120122   8.662   3.164   0.257
 2697SOL    HW220123   8.515   3.093   0.258
 2698SOL     OW20124   1.899   7.590   6.681
 2698SOL    HW120125   1.844   7.672   6.697
 2698SOL    HW220126   1.944   7.563   6.766
 2699SOL     OW20127   6.488   2.713   5.805
 2699SOL    HW120128   6.440   2.631   5.837
 2699SOL    HW220129   6.572   2.725   5.857
 2700SOL     OW20130   7.944   2.389   5.829
 2700SOL    HW120131   8.026   2.414   5.881
 2700SOL    HW220132   7.964   2.390   5.732
 2701SOL     OW20133   3.036   7.432   0.551
 2701SOL    HW120134   3.063   7.403   0.643
 2701SOL    HW220135   3.010   7.352   0.498
 2702SOL     OW20136   5.184   4.469   0.919
 2702SOL    HW120137   5.279   4.478   0.887
 2702SOL    HW220138   5.143   4.560   0.927
 2703SOL     OW20139   7.768   4.097   0.536
 2703SOL    HW120140   7.724   4.144   0.460
 2703SOL    HW220141   7.857   4.139   0.555
 2704SOL     OW20142   5.793   1.597   0.264
 2704SOL    HW120143   5.719   1.624   0.325
 2704SOL    HW220144   5.759   1.591   0.170
 2705SOL     OW20145   4.640   6.986   5.179
 2705SOL    HW120146   4.696   7.067   5.197
 2705SOL    HW220147   4.552   7.014   5.143
 2706SOL     OW20148   3.092   1.383   0.879
 2706SOL    HW120149   3.172   1.347   0.929
 2706SOL    HW220150   3.042   1.446   0.938
 2707SOL     OW20151   0.865   1.115   4.949
 2707SOL    HW120152   0.783   1.160   4.912
 2707SOL    HW220153   0.938   1.182   4.961
 2708SOL     OW20154   1.931   7.269   1.332
 2708SOL    HW120155   1.998   7.278   1.405
 2708SOL    HW220156   1.840   7.259   1.372
 2709SOL     OW20157   5.211   5.951   5.897
 2709SOL    HW120158   5.111   5.957   5.906
 2709SOL    HW220159   5.237   5.971   5.802
 2710SOL     OW20160   2.920   0.371   0.860
 2710SOL    HW120161   2.919   0.271   0.854
 2710SOL    HW220162   2.862   0.400   0.937
 2711SOL     OW20163   7.939   0.618   1.112
 2711SOL    HW120164   7.867   0.551   1.134
 2711SOL    HW220165   7.909   0.709   1.139
 2712SOL     OW20166   1.144   8.307   6.675
 2712SOL    HW120167   1.129   8.245   6.752
 2712SOL    HW220168   1.167   8.398   6.710
 2713SOL     OW20169   2.953   6.048   1.075
 2713SOL    HW120170   2.995   6.020   0.988
 2713SOL    HW220171   2.914   5.967   1.120
 2714SOL     OW20172   2.160   4.924   1.318
 2714SOL    HW120173   2.251   4.918   1.278
 2714SOL    HW220174   2.092   4.925   1.244
 2715SOL     OW20175   9.247   7.727   6.830
 2715SOL    HW120176   9.182   7.751   6.758
 2715SOL    HW220177   9.315   7.799   6.839
 2716SOL     OW20178   7.677   2.612   6.878
 2716SOL    HW120179   7.727   2.696   6.854
 2716SOL    HW220180   7.636   2.622   6.968
 2717SOL     OW20181   1.108   7.136   0.299
 2717SOL    HW120182   1.027   7.094   0.341
 2717SOL    HW220183   1.190   7.095   0.339
 2718SOL     OW20184   2.095   2.506   6.022
 2718SOL    HW120185   2.108   2.577   6.091
 2718SOL    HW220186   2.001   2.510   5.987
 2719SOL     OW20187   3.198   1.703   6.427
 2719SOL    HW120188   3.173   1.691   6.523
 2719SOL    HW220189   3.115   1.702   6.371
 2720SOL     OW20190   7.986   1.792   0.539
 2720SOL    HW120191   8.026   1.731   0.608
 2720SOL    HW220192   8.008   1.886   0.562
 2721SOL     OW20193   7.081   3.696   0.991
 2721SOL    HW120194   7.051   3.724   0.900
 2721SOL    HW220195   7.170   3.737   1.011
 2722SOL     OW20196   9.316   0.841   1.256
 2722SOL    HW120197   9.359   0.829   1.345
 2722SOL    HW220198   9.219   0.861   1.269
 2723SOL     OW20199   5.336   5.992   1.640
 2723SOL    HW120200   5.335   5.900   1.680
 2723SOL    HW220201   5.286   6.055   1.698
 2724SOL     OW20202   5.497   4.153   0.829
 2724SOL    HW120203   5.545   4.075   0.789
 2724SOL    HW220204   5.420   4.178   0.771
 2725SOL     OW20205   2.972   5.964   5.789
 2725SOL    HW120206   3.020   5.951   5.702
 2725SOL    HW220207   2.997   5.890   5.851
 2726SOL     OW20208   3.609   8.044   6.952
 2726SOL    HW120209   3.532   8.095   6.914
 2726SOL    HW220210   3.643   7.979   6.883
 2727SOL     OW20211   1.269   4.301   0.734
 2727SOL    HW120212   1.183   4.270   0.774
 2727SOL    HW220213   1.256   4.390   0.690
 2728SOL     OW20214   0.310   5.920   6.660
 2728SOL    HW120215   0.293   5.824   6.638
 2728SOL    HW220216   0.408   5.934   6.672
 2729SOL     OW20217   6.855   0.138   0.578
 2729SOL    HW120218   6.889   0.088   0.499
 2729SOL    HW220219   6.765   0.103   0.603
 2730SOL     OW20220   8.220   3.353   1.836
 2730SOL    HW120221   8.145   3.350   1.902
 2730SOL    HW220222   8.300   3.396   1.877
 2731SOL     OW20223   3.283   1.009   2.056
 2731SOL    HW120224   3.368   1.028   2.106
 2731SOL    HW220225   3.272   1.076   1.983
 2732SOL     OW20226   9.561   3.433   0.935
 2732SOL    HW120227   9.528   3.489   0.859
 2732SOL    HW220228   9.499   3.444   1.013
 2733SOL     OW20229   5.604   2.470   0.727
 2733SOL    HW120230   5.536   2.542   0.724
 2733SOL    HW220231   5.578   2.397   0.662
 2734SOL     OW20232   5.894   2.406   6.478
 2734SOL    HW120233   5.897   2.419   6.379
 2734SOL    HW220234   5.925   2.313   6.500
 2735SOL     OW20235   8.981   4.288   0.829
 2735SOL    HW120236   9.077   4.281   0.802
 2735SOL    HW220237   8.943   4.196   0.842
 2736SOL     OW20238   6.193   5.164   6.961
 2736SOL    HW120239   6.195   5.074   7.004
 2736SOL    HW220240   6.100   5.201   6.964
 2737SOL     OW20241   4.255   0.278   5.467
 2737SOL    HW120242   4.254   0.225   5.552
 2737SOL    HW220243   4.209   0.226   5.395
 2738SOL     OW20244   1.022   3.972   6.746
 2738SOL    HW120245   0.934   3.929   6.766
 2738SOL    HW220246   1.007   4.064   6.710
 2739SOL     OW20247   7.446   7.425   6.863
 2739SOL    HW120248   7.372   7.442   6.798
 2739SOL    HW220249   7.502   7.350   6.830
 2740SOL     OW20250   1.805   0.835   5.439
 2740SOL    HW120251   1.850   0.829   5.350
 2740SOL    HW220252   1.770   0.928   5.452
 2741SOL     OW20253   0.505   4.783   6.887
 2741SOL    HW120254   0.574   4.852   6.912
 2741SOL    HW220255   0.550   4.695   6.873
 2742SOL     OW20256   7.719   8.396   0.470
 2742SOL    HW120257   7.703   8.487   0.433
 2742SOL    HW220258   7.648   8.333   0.436
 2743SOL     OW20259   3.423   7.185   1.090
 2743SOL    HW120260   3.462   7.124   1.021
 2743SOL    HW220261   3.329   7.208   1.066
 2744SOL     OW20262   1.110   7.995   6.639
 2744SOL    HW120263   1.197   7.949   6.620
 2744SOL    HW220264   1.110   8.027   6.734
 2745SOL     OW20265   9.577   2.539   5.918
 2745SOL    HW120266   9.542   2.622   5.874
 2745SOL    HW220267   9.542   2.534   6.012
 2746SOL     OW20268   4.222   7.745   6.357
 2746SOL    HW120269   4.295   7.782   6.300
 2746SOL    HW220270   4.261   7.694   6.433
 2747SOL     OW20271   1.972   0.771   0.979
 2747SOL    HW120272   2.031   0.781   0.899
 2747SOL    HW220273   1.877   0.762   0.949
 2748SOL     OW20274   9.147   6.818   5.825
 2748SOL    HW120275   9.195   6.738   5.861
 2748SOL    HW220276   9.201   6.900   5.842
 2749SOL     OW20277   8.937   7.408   1.078
 2749SOL    HW120278   8.938   7.416   1.178
 2749SOL    HW220279   9.030   7.418   1.043
 2750SOL     OW20280   6.889   4.724   6.623
 2750SOL    HW120281   6.805   4.777   6.630
 2750SOL    HW220282   6.914   4.714   6.526
 2751SOL     OW20283   4.737   7.003   0.582
 2751SOL    HW120284   4.781   7.092   0.591
 2751SOL    HW220285   4.651   7.003   0.634
 2752SOL     OW20286   0.427   7.290   0.762
 2752SOL    HW120287   0.465   7.225   0.695
 2752SOL    HW220288   0.402   7.240   0.845
 2753SOL     OW20289   9.280   5.838   5.277
 2753SOL    HW120290   9.206   5.779   5.245
 2753SOL    HW220291   9.354   5.781   5.312
 2754SOL     OW20292   8.270   3.304   0.525
 2754SOL    HW120293   8.265   3.358   0.441
 2754SOL    HW220294   8.233   3.212   0.508
 2755SOL     OW20295   2.283   6.391   5.316
 2755SOL    HW120296   2.264   6.480   5.275
 2755SOL    HW220297   2.381   6.372   5.311
 2756SOL     OW20298   9.080   4.548   0.880
 2756SOL    HW120299   9.100   4.584   0.788
 2756SOL    HW220300   9.042   4.456   0.872
 2757SOL     OW20301   7.769   6.565   6.884
 2757SOL    HW120302   7.718   6.598   6.964
 2757SOL    HW220303   7.834   6.495   6.914
 2758SOL     OW20304   7.070   0.861   1.584
 2758SOL    HW120305   7.128   0.942   1.589
 2758SOL    HW220306   7.126   0.779   1.599
 2759SOL     OW20307   1.521   2.038   6.747
 2759SOL    HW120308   1.497   2.043   6.650
 2759SOL    HW220309   1.472   1.961   6.789
 2760SOL     OW20310   2.340   1.401   1.009
 2760SOL    HW120311   2.357   1.344   0.929
 2760SOL    HW220312   2.425   1.447   1.036
 2761SOL     OW20313   4.242   7.266   0.460
 2761SOL    HW120314   4.247   7.224   0.369
 2761SOL    HW220315   4.314   7.334   0.469
 2762SOL     OW20316   6.345   4.376   0.972
 2762SOL    HW120317   6.280   4.365   1.047
 2762SOL    HW220318   6.311   4.446   0.908
 2763SOL     OW20319   5.058   6.645   5.153
 2763SOL    HW120320   4.982   6.700   5.118
 2763SOL    HW220321   5.144   6.679   5.115
 2764SOL     OW20322   6.370   2.564   6.612
 2764SOL    HW120323   6.305   2.634   6.644
 2764SOL    HW220324   6.453   2.609   6.579
 2765SOL     OW20325   5.549   0.878   5.837
 2765SOL    HW120326   5.620   0.811   5.860
 2765SOL    HW220327   5.541   0.885   5.738
 2766SOL     OW20328   9.416   2.659   1.443
 2766SOL    HW120329   9.459   2.579   1.402
 2766SOL    HW220330   9.487   2.720   1.480
 2767SOL     OW20331   8.984   3.283   6.024
 2767SOL    HW120332   8.976   3.382   6.035
 2767SOL    HW220333   8.965   3.238   6.111
 2768SOL     OW20334   4.978   3.739   1.375
 2768SOL    HW120335   5.033   3.818   1.402
 2768SOL    HW220336   4.881   3.764   1.376
 2769SOL     OW20337   6.315   0.631   6.286
 2769SOL    HW120338   6.258   0.550   6.300
 2769SOL    HW220339   6.257   0.710   6.271
 2770SOL     OW20340   5.370   6.406   1.663
 2770SOL    HW120341   5.310   6.385   1.586
 2770SOL    HW220342   5.418   6.323   1.691
 2771SOL     OW20343   2.660   0.898   0.782
 2771SOL    HW120344   2.561   0.914   0.789
 2771SOL    HW220345   2.675   0.811   0.735
 2772SOL     OW20346   2.919   1.291   5.999
 2772SOL    HW120347   2.963   1.208   5.965
 2772SOL    HW220348   2.844   1.267   6.061
 2773SOL     OW20349   8.282   6.224   0.936
 2773SOL    HW120350   8.284   6.235   1.035
 2773SOL    HW220351   8.364   6.264   0.896
 2774SOL     OW20352   8.752   2.731   1.584
 2774SOL    HW120353   8.831   2.791   1.577
 2774SOL    HW220354   8.705   2.747   1.671
 2775SOL     OW20355   4.924   7.640   6.537
 2775SOL    HW120356   4.875   7.553   6.540
 2775SOL    HW220357   5.016   7.625   6.502
 2776SOL     OW20358   4.637   1.557   1.927
 2776SOL    HW120359   4.685   1.548   2.014
 2776SOL    HW220360   4.576   1.636   1.930
 2777SOL     OW20361   3.947   7.492   1.543
 2777SOL    HW120362   3.874   7.502   1.476
 2777SOL    HW220363   4.030   7.535   1.509
 2778SOL     OW20364   9.331   0.075   1.465
 2778SOL    HW120365   9.237   0.042   1.471
 2778SOL    HW220366   9.386   0.031   1.537
 2779SOL     OW20367   8.642   2.494   0.242
 2779SOL    HW120368   8.583   2.414   0.246
 2779SOL    HW220369   8.678   2.514   0.333
 2780SOL     OW20370   4.992   5.783   1.338
 2780SOL    HW120371   5.021   5.698   1.294
 2780SOL    HW220372   4.892   5.786   1.343
 2781SOL     OW20373   6.019   5.415   1.494
 2781SOL    HW120374   5.938   5.370   1.529
 2781SOL    HW220375   6.091   5.413   1.563
 2782SOL     OW20376   3.417   1.047   0.366
 2782SOL    HW120377   3.333   1.069   0.415
 2782SOL    HW220378   3.432   0.948   0.369
 2783SOL     OW20379   3.077   6.621   6.743
 2783SOL    HW120380   3.080   6.706   6.691
 2783SOL    HW220381   3.161   6.610   6.795
 2784SOL     OW20382   7.008   3.705   0.390
 2784SOL    HW120383   7.027   3.694   0.488
 2784SOL    HW220384   6.957   3.625   0.357
 2785SOL     OW20385   1.577   6.243   6.401
 2785SOL    HW120386   1.660   6.219   6.351
 2785SOL    HW220387   1.532   6.159   6.434
 2786SOL     OW20388   1.165   5.912   6.422
 2786SOL    HW120389   1.250   5.863   6.442
 2786SOL    HW220390   1.128   5.952   6.506
 2787SOL     OW20391   9.339   6.851   6.747
 2787SOL    HW120392   9.379   6.935   6.784
 2787SOL    HW220393   9.246   6.870   6.715
 2788SOL     OW20394   2.024   5.657   5.093
 2788SOL    HW120395   1.946   5.614   5.048
 2788SOL    HW220396   2.104   5.650   5.033
 2789SOL     OW20397   0.649   7.292   5.350
 2789SOL    HW120398   0.699   7.348   5.416
 2789SOL    HW220399   0.565   7.338   5.323
 2790SOL     OW20400   1.902   6.520   0.555
 2790SOL    HW120401   2.001   6.514   0.545
 2790SOL    HW220402   1.859   6.511   0.464
 2791SOL     OW20403   1.910   5.111   0.903
 2791SOL    HW120404   1.852   5.104   0.822
 2791SOL    HW220405   1.947   5.203   0.910
 2792SOL     OW20406   3.654   7.038   5.435
 2792SOL    HW120407   3.585   7.108   5.416
 2792SOL    HW220408   3.731   7.080   5.484
 2793SOL     OW20409   3.623   5.648   1.725
 2793SOL    HW120410   3.562   5.568   1.727
 2793SOL    HW220411   3.618   5.695   1.813
 2794SOL     OW20412   7.786   7.307   1.063
 2794SOL    HW120413   7.857   7.257   1.113
 2794SOL    HW220414   7.805   7.405   1.068
 2795SOL     OW20415   7.741   0.108   5.659
 2795SOL    HW120416   7.694   0.093   5.572
 2795SOL    HW220417   7.710   0.039   5.726
 2796SOL     OW20418   8.172   3.130   0.982
 2796SOL    HW120419   8.214   3.053   0.933
 2796SOL    HW220420   8.141   3.199   0.916
 2797SOL     OW20421   5.020   8.361   5.873
 2797SOL    HW120422   4.955   8.401   5.938
 2797SOL    HW220423   5.002   8.263   5.865
 2798SOL     OW20424   3.980   4.647   1.885
 2798SOL    HW120425   3.985   4.730   1.940
 2798SOL    HW220426   4.064   4.637   1.832
 2799SOL     OW20427   4.028   8.307   2.093
 2799SOL    HW120428   3.954   8.289   2.027
 2799SOL    HW220429   4.026   8.237   2.164
 2800SOL     OW20430   8.838   8.379   0.463
 2800SOL    HW120431   8.888   8.314   0.405
 2800SOL    HW220432   8.902   8.420   0.528
 2801SOL     OW20433   8.537   2.718   0.627
 2801SOL    HW120434   8.480   2.796   0.602
 2801SOL    HW220435   8.528   2.700   0.725
 2802SOL     OW20436   4.385   8.328   5.120
 2802SOL    HW120437   4.355   8.328   5.024
 2802SOL    HW220438   4.326   8.267   5.173
 2803SOL     OW20439   8.500   5.749   1.857
 2803SOL    HW120440   8.432   5.681   1.829
 2803SOL    HW220441   8.591   5.715   1.837
 2804SOL     OW20442   6.437   2.807   6.870
 2804SOL    HW120443   6.367   2.794   6.800
 2804SOL    HW220444   6.457   2.904   6.880
 2805SOL     OW20445   7.407   1.738   6.470
 2805SOL    HW120446   7.430   1.677   6.546
 2805SOL    HW220447   7.432   1.832   6.494
 2806SOL     OW20448   2.256   1.313   0.648
 2806SOL    HW120449   2.220   1.271   0.564
 2806SOL    HW220450   2.198   1.289   0.725
 2807SOL     OW20451   6.050   0.273   6.573
 2807SOL    HW120452   5.972   0.285   6.511
 2807SOL    HW220453   6.134   0.264   6.520
 2808SOL     OW20454   4.358   7.395   0.922
 2808SOL    HW120455   4.450   7.380   0.959
 2808SOL    HW220456   4.307   7.310   0.923
 2809SOL     OW20457   6.945   4.421   6.158
 2809SOL    HW120458   6.954   4.444   6.255
 2809SOL    HW220459   7.030   4.441   6.110
 2810SOL     OW20460   2.971   5.540   6.641
 2810SOL    HW120461   2.985   5.608   6.713
 2810SOL    HW220462   2.890   5.564   6.587
 2811SOL     OW20463   8.762   5.851   5.407
 2811SOL    HW120464   8.674   5.832   5.450
 2811SOL    HW220465   8.820   5.769   5.410
 2812SOL     OW20466   8.428   5.811   0.812
 2812SOL    HW120467   8.372   5.740   0.854
 2812SOL    HW220468   8.386   5.841   0.726
 2813SOL     OW20469   2.447   7.532   6.098
 2813SOL    HW120470   2.382   7.536   6.022
 2813SOL    HW220471   2.409   7.581   6.177
 2814SOL     OW20472   5.085   0.624   6.085
 2814SOL    HW120473   5.116   0.637   5.991
 2814SOL    HW220474   5.140   0.681   6.146
 2815SOL     OW20475   1.898   5.810   0.964
 2815SOL    HW120476   1.950   5.815   0.878
 2815SOL    HW220477   1.827   5.741   0.956
 2816SOL     OW20478   6.680   1.556   1.401
 2816SOL    HW120479   6.723   1.496   1.470
 2816SOL    HW220480   6.750   1.590   1.339
 2817SOL     OW20481   5.347   1.510   0.767
 2817SOL    HW120482   5.287   1.451   0.820
 2817SOL    HW220483   5.376   1.462   0.684
 2818SOL     OW20484   2.220   7.917   6.674
 2818SOL    HW120485   2.122   7.914   6.693
 2818SOL    HW220486   2.253   7.826   6.653
 2819SOL     OW20487   6.888   0.397   0.491
 2819SOL    HW120488   6.864   0.314   0.541
 2819SOL    HW220489   6.979   0.388   0.451
 2820SOL     OW20490   5.007   4.122   0.948
 2820SOL    HW120491   5.065   4.040   0.951
 2820SOL    HW220492   5.031   4.176   0.867
 2821SOL     OW20493   7.901   1.696   6.771
 2821SOL    HW120494   7.930   1.718   6.864
 2821SOL    HW220495   7.969   1.636   6.728
 2822SOL     OW20496   3.957   1.092   5.745
 2822SOL    HW120497   3.948   1.062   5.841
 2822SOL    HW220498   4.052   1.116   5.727
 2823SOL     OW20499   6.417   7.086   6.351
 2823SOL    HW120500   6.445   6.990   6.349
 2823SOL    HW220501   6.320   7.093   6.371
 2824SOL     OW20502   8.100   6.098   6.571
 2824SOL    HW120503   8.096   6.042   6.654
 2824SOL    HW220504   8.011   6.096   6.525
 2825SOL     OW20505   7.005   3.771   1.651
 2825SOL    HW120506   7.033   3.835   1.722
 2825SOL    HW220507   6.962   3.822   1.576
 2826SOL     OW20508   1.208   1.291   6.675
 2826SOL    HW120509   1.272   1.267   6.602
 2826SOL    HW220510   1.242   1.257   6.762
 2827SOL     OW20511   5.355   3.899   6.375
 2827SOL    HW120512   5.371   3.897   6.474
 2827SOL    HW220513   5.357   3.805   6.340
 2828SOL     OW20514   4.106   7.084   1.039
 2828SOL    HW120515   4.120   7.030   1.122
 2828SOL    HW220516   4.182   7.070   0.976
 2829SOL     OW20517   6.766   6.359   0.967
 2829SOL    HW120518   6.829   6.340   0.891
 2829SOL    HW220519   6.767   6.457   0.987
 2830SOL     OW20520   9.015   5.447   0.822
 2830SOL    HW120521   9.050   5.432   0.914
 2830SOL    HW220522   9.090   5.467   0.760
 2831SOL     OW20523   6.703   8.411   6.151
 2831SOL    HW120524   6.779   8.437   6.092
 2831SOL    HW220525   6.694   8.477   6.226
 2832SOL     OW20526   2.935   1.167   2.149
 2832SOL    HW120527   2.929   1.241   2.081
 2832SOL    HW220528   2.929   1.079   2.103
 2833SOL     OW20529   4.077   7.927   6.828
 2833SOL    HW120530   4.096   8.014   6.873
 2833SOL    HW220531   3.983   7.899   6.848
 2834SOL     OW20532   3.999   8.396   0.991
 2834SOL    HW120533   4.018   8.317   0.933
 2834SOL    HW220534   3.985   8.477   0.934
 2835SOL     OW20535   1.805   3.963   6.119
 2835SOL    HW120536   1.822   4.058   6.145
 2835SOL    HW220537   1.846   3.945   6.029
 2836SOL     OW20538   8.379   4.108   6.787
 2836SOL    HW120539   8.333   4.152   6.710
 2836SOL    HW220540   8.476   4.133   6.787
 2837SOL     OW20541   9.072   5.909   0.406
 2837SOL    HW120542   9.006   5.932   0.478
 2837SOL    HW220543   9.105   5.815   0.419
 2838SOL     OW20544   3.616   7.690   5.582
 2838SOL    HW120545   3.539   7.645   5.535
 2838SOL    HW220546   3.701   7.667   5.535
 2839SOL     OW20547   7.768   6.286   1.242
 2839SOL    HW120548   7.813   6.347   1.308
 2839SOL    HW220549   7.688   6.244   1.284
 2840SOL     OW20550   0.900   5.495   5.882
 2840SOL    HW120551   0.853   5.414   5.917
 2840SOL    HW220552   0.834   5.568   5.865
 2841SOL     OW20553   8.657   2.455   1.569
 2841SOL    HW120554   8.635   2.541   1.614
 2841SOL    HW220555   8.652   2.380   1.636
 2842SOL     OW20556   7.887   6.219   5.887
 2842SOL    HW120557   7.873   6.129   5.927
 2842SOL    HW220558   7.802   6.271   5.890
 2843SOL     OW20559   8.672   2.350   1.057
 2843SOL    HW120560   8.629   2.339   1.147
 2843SOL    HW220561   8.711   2.441   1.050
 2844SOL     OW20562   4.662   0.118   0.696
 2844SOL    HW120563   4.633   0.130   0.601
 2844SOL    HW220564   4.700   0.027   0.709
 2845SOL     OW20565   3.436   0.527   5.276
 2845SOL    HW120566   3.356   0.467   5.274
 2845SOL    HW220567   3.500   0.499   5.204
 2846SOL     OW20568   7.415   0.005   1.257
 2846SOL    HW120569   7.506   0.045   1.255
 2846SOL    HW220570   7.388  -0.014   1.351
 2847SOL     OW20571   0.707   0.088   5.577
 2847SOL    HW120572   0.686   0.170   5.522
 2847SOL    HW220573   0.779   0.036   5.531
 2848SOL     OW20574   7.467   1.549   6.633
 2848SOL    HW120575   7.551   1.532   6.686
 2848SOL    HW220576   7.407   1.470   6.640
 2849SOL     OW20577   5.305   3.617   5.881
 2849SOL    HW120578   5.362   3.552   5.831
 2849SOL    HW220579   5.304   3.704   5.832
 2850SOL     OW20580   2.876   3.704   0.308
 2850SOL    HW120581   2.830   3.626   0.352
 2850SOL    HW220582   2.939   3.671   0.238
 2851SOL     OW20583   1.077   5.664   1.724
 2851SOL    HW120584   1.114   5.745   1.769
 2851SOL    HW220585   1.002   5.691   1.663
 2852SOL     OW20586   9.543   4.050   1.383
 2852SOL    HW120587   9.453   4.065   1.424
 2852SOL    HW220588   9.596   3.987   1.441
 2853SOL     OW20589   7.432   4.290   6.066
 2853SOL    HW120590   7.511   4.230   6.080
 2853SOL    HW220591   7.439   4.335   5.977
 2854SOL     OW20592   6.077   5.822   6.923
 2854SOL    HW120593   6.095   5.724   6.918
 2854SOL    HW220594   5.981   5.839   6.903
 2855SOL     OW20595   1.877   6.321   4.996
 2855SOL    HW120596   1.898   6.225   4.974
 2855SOL    HW220597   1.916   6.380   4.926
 2856SOL     OW20598   7.296   4.465   0.464
 2856SOL    HW120599   7.210   4.472   0.514
 2856SOL    HW220600   7.370   4.442   0.527
 2857SOL     OW20601   0.151   0.503   5.614
 2857SOL    HW120602   0.144   0.405   5.629
 2857SOL    HW220603   0.176   0.520   5.518
 2858SOL     OW20604   5.393   2.134   0.467
 2858SOL    HW120605   5.438   2.138   0.377
 2858SOL    HW220606   5.455   2.171   0.536
 2859SOL     OW20607   4.744   5.629   2.278
 2859SOL    HW120608   4.758   5.722   2.313
 2859SOL    HW220609   4.832   5.592   2.248
 2860SOL     OW20610   5.990   3.759   1.489
 2860SOL    HW120611   6.067   3.732   1.547
 2860SOL    HW220612   6.009   3.733   1.394
 2861SOL     OW20613   2.419   4.974   1.263
 2861SOL    HW120614   2.476   5.049   1.232
 2861SOL    HW220615   2.431   4.961   1.361
 2862SOL     OW20616   3.795   4.214   2.239
 2862SOL    HW120617   3.895   4.218   2.234
 2862SOL    HW220618   3.767   4.206   2.334
 2863SOL     OW20619   3.550   5.651   1.106
 2863SOL    HW120620   3.478   5.715   1.076
 2863SOL    HW220621   3.634   5.671   1.057
 2864SOL     OW20622   3.974   6.985   6.738
 2864SOL    HW120623   4.072   7.007   6.743
 2864SOL    HW220624   3.959   6.894   6.777
 2865SOL     OW20625   7.489   1.613   0.961
 2865SOL    HW120626   7.435   1.530   0.943
 2865SOL    HW220627   7.449   1.664   1.037
 2866SOL     OW20628   2.982   7.090   6.667
 2866SOL    HW120629   3.037   7.140   6.734
 2866SOL    HW220630   2.964   7.149   6.588
 2867SOL     OW20631   8.474   4.056   0.549
 2867SOL    HW120632   8.541   4.124   0.522
 2867SOL    HW220633   8.509   3.965   0.529
 2868SOL     OW20634   1.632   0.412   2.028
 2868SOL    HW120635   1.719   0.456   2.048
 2868SOL    HW220636   1.569   0.479   1.988
 2869SOL     OW20637   7.002   6.311   6.906
 2869SOL    HW120638   6.988   6.399   6.861
 2869SOL    HW220639   6.924   6.291   6.965
 2870SOL     OW20640   6.994   2.680   0.689
 2870SOL    HW120641   6.975   2.644   0.598
 2870SOL    HW220642   7.019   2.605   0.750
 2871SOL     OW20643   1.633   1.609   6.462
 2871SOL    HW120644   1.533   1.614   6.474
 2871SOL    HW220645   1.675   1.695   6.489
 2872SOL     OW20646   8.004   6.569   5.066
 2872SOL    HW120647   7.987   6.471   5.075
 2872SOL    HW220648   7.929   6.611   5.016
 2873SOL     OW20649   3.310   5.569   5.874
 2873SOL    HW120650   3.211   5.555   5.869
 2873SOL    HW220651   3.330   5.665   5.894
 2874SOL     OW20652   8.266   0.558   5.132
 2874SOL    HW120653   8.230   0.503   5.057
 2874SOL    HW220654   8.364   0.574   5.117
 2875SOL     OW20655   9.146   0.620   1.593
 2875SOL    HW120656   9.162   0.555   1.668
 2875SOL    HW220657   9.054   0.657   1.599
 2876SOL     OW20658   4.680   8.240   1.535
 2876SOL    HW120659   4.608   8.177   1.506
 2876SOL    HW220660   4.694   8.230   1.633
 2877SOL     OW20661   4.642   1.292   1.864
 2877SOL    HW120662   4.619   1.232   1.941
 2877SOL    HW220663   4.634   1.388   1.893
 2878SOL     OW20664   4.883   2.472   0.509
 2878SOL    HW120665   4.792   2.438   0.486
 2878SOL    HW220666   4.883   2.509   0.602
 2879SOL     OW20667   2.391   5.266   5.448
 2879SOL    HW120668   2.368   5.170   5.432
 2879SOL    HW220669   2.360   5.321   5.371
 2880SOL     OW20670   3.494   1.751   1.573
 2880SOL    HW120671   3.574   1.775   1.629
 2880SOL    HW220672   3.415   1.804   1.604
 2881SOL     OW20673   6.897   6.633   4.987
 2881SOL    HW120674   6.863   6.551   4.940
 2881SOL    HW220675   6.997   6.635   4.983
 2882SOL     OW20676   7.818   0.066   6.854
 2882SOL    HW120677   7.730   0.026   6.880
 2882SOL    HW220678   7.806   0.164   6.840
 2883SOL     OW20679   6.627   1.779   6.440
 2883SOL    HW120680   6.546   1.750   6.491
 2883SOL    HW220681   6.602   1.851   6.376
 2884SOL     OW20682   8.993   7.065   1.562
 2884SOL    HW120683   8.966   6.981   1.610
 2884SOL    HW220684   8.982   7.143   1.623
 2885SOL     OW20685   0.985  -0.002   5.613
 2885SOL    HW120686   1.000   0.096   5.602
 2885SOL    HW220687   0.983  -0.025   5.711
 2886SOL     OW20688   5.689   0.267   1.287
 2886SOL    HW120689   5.712   0.178   1.327
 2886SOL    HW220690   5.644   0.323   1.356
 2887SOL     OW20691   8.575   6.808   1.769
 2887SOL    HW120692   8.538   6.716   1.756
 2887SOL    HW220693   8.512   6.861   1.826
 2888SOL     OW20694   0.736   2.223   6.800
 2888SOL    HW120695   0.802   2.173   6.855
 2888SOL    HW220696   0.753   2.321   6.808
 2889SOL     OW20697   5.594   0.166   5.741
 2889SOL    HW120698   5.535   0.133   5.814
 2889SOL    HW220699   5.542   0.224   5.679
 2890SOL     OW20700   8.168   5.918   1.022
 2890SOL    HW120701   8.152   5.941   1.118
 2890SOL    HW220702   8.252   5.963   0.991
 2891SOL     OW20703   5.290   2.421   0.799
 2891SOL    HW120704   5.194   2.397   0.785
 2891SOL    HW220705   5.306   2.515   0.769
 2892SOL     OW20706   5.867   2.690   1.080
 2892SOL    HW120707   5.792   2.740   1.123
 2892SOL    HW220708   5.857   2.592   1.099
 2893SOL     OW20709   6.534   6.752   6.045
 2893SOL    HW120710   6.524   6.840   5.998
 2893SOL    HW220711   6.531   6.766   6.143
 2894SOL     OW20712   8.441   5.340   6.953
 2894SOL    HW120713   8.452   5.320   6.855
 2894SOL    HW220714   8.348   5.373   6.971
 2895SOL     OW20715   7.404   7.251   1.014
 2895SOL    HW120716   7.345   7.295   1.082
 2895SOL    HW220717   7.347   7.197   0.951
 2896SOL     OW20718   6.580   1.451   6.709
 2896SOL    HW120719   6.673   1.414   6.709
 2896SOL    HW220720   6.571   1.518   6.783
 2897SOL     OW20721   1.896   1.431   0.399
 2897SOL    HW120722   1.923   1.366   0.469
 2897SOL    HW220723   1.954   1.513   0.406
 2898SOL     OW20724   8.645   7.507   6.905
 2898SOL    HW120725   8.632   7.605   6.918
 2898SOL    HW220726   8.742   7.485   6.916
 2899SOL     OW20727   6.392   8.307   1.576
 2899SOL    HW120728   6.463   8.240   1.598
 2899SOL    HW220729   6.411   8.348   1.487
 2900SOL     OW20730   1.353   1.578   0.972
 2900SOL    HW120731   1.256   1.595   0.988
 2900SOL    HW220732   1.368   1.480   0.957
 2901SOL     OW20733   4.741   2.662   0.275
 2901SOL    HW120734   4.714   2.635   0.367
 2901SOL    HW220735   4.752   2.762   0.271
 2902SOL     OW20736   1.805   0.180   0.745
 2902SOL    HW120737   1.755   0.261   0.714
 2902SOL    HW220738   1.882   0.163   0.684
 2903SOL     OW20739   7.080   5.156   0.711
 2903SOL    HW120740   7.055   5.080   0.771
 2903SOL    HW220741   7.120   5.120   0.627
 2904SOL     OW20742   3.654   6.425   0.844
 2904SOL    HW120743   3.713   6.361   0.893
 2904SOL    HW220744   3.585   6.462   0.907
 2905SOL     OW20745   1.178   2.719   6.101
 2905SOL    HW120746   1.212   2.807   6.069
 2905SOL    HW220747   1.096   2.733   6.155
 2906SOL     OW20748   2.465   1.395   5.500
 2906SOL    HW120749   2.482   1.309   5.548
 2906SOL    HW220750   2.395   1.380   5.429
 2907SOL     OW20751   4.185   8.207   5.286
 2907SOL    HW120752   4.111   8.269   5.263
 2907SOL    HW220753   4.158   8.113   5.264
 2908SOL     OW20754   5.998   6.090   5.652
 2908SOL    HW120755   5.963   6.180   5.675
 2908SOL    HW220756   5.960   6.060   5.564
 2909SOL     OW20757   1.288   5.361   1.390
 2909SOL    HW120758   1.374   5.347   1.439
 2909SOL    HW220759   1.233   5.429   1.437
 2910SOL     OW20760   9.037   7.694   1.497
 2910SOL    HW120761   9.034   7.720   1.400
 2910SOL    HW220762   8.984   7.758   1.551
 2911SOL     OW20763   6.567   3.968   6.123
 2911SOL    HW120764   6.575   3.880   6.168
 2911SOL    HW220765   6.542   3.954   6.027
 2912SOL     OW20766   6.935   3.348   0.622
 2912SOL    HW120767   6.863   3.412   0.594
 2912SOL    HW220768   7.006   3.399   0.670
 2913SOL     OW20769   5.040   6.517   1.280
 2913SOL    HW120770   5.033   6.520   1.181
 2913SOL    HW220771   5.030   6.610   1.316
 2914SOL     OW20772   8.413   3.467   1.427
 2914SOL    HW120773   8.444   3.531   1.497
 2914SOL    HW220774   8.472   3.475   1.346
 2915SOL     OW20775   6.949   2.268   2.131
 2915SOL    HW120776   6.911   2.345   2.183
 2915SOL    HW220777   6.929   2.182   2.179
 2916SOL     OW20778   3.691   4.588   0.475
 2916SOL    HW120779   3.702   4.678   0.518
 2916SOL    HW220780   3.779   4.559   0.437
 2917SOL     OW20781   6.414   7.358   6.202
 2917SOL    HW120782   6.357   7.406   6.135
 2917SOL    HW220783   6.487   7.308   6.155
 2918SOL     OW20784   3.394   3.127   6.857
 2918SOL    HW120785   3.328   3.159   6.925
 2918SOL    HW220786   3.482   3.113   6.902
 2919SOL     OW20787   3.306   8.338   6.321
 2919SOL    HW120788   3.206   8.346   6.317
 2919SOL    HW220789   3.333   8.243   6.304
 2920SOL     OW20790   5.348   2.732   0.420
 2920SOL    HW120791   5.350   2.832   0.421
 2920SOL    HW220792   5.253   2.701   0.417
 2921SOL     OW20793   2.522   6.300   6.021
 2921SOL    HW120794   2.464   6.244   5.962
 2921SOL    HW220795   2.610   6.316   5.976
 2922SOL     OW20796   8.555   8.084   6.431
 2922SOL    HW120797   8.592   7.996   6.403
 2922SOL    HW220798   8.471   8.102   6.380
 2923SOL     OW20799   0.282   6.558   4.297
 2923SOL    HW120800   0.375   6.548   4.262
 2923SOL    HW220801   0.251   6.652   4.282
 2924SOL     OW20802   9.388   2.017   0.575
 2924SOL    HW120803   9.465   1.974   0.622
 2924SOL    HW220804   9.361   2.100   0.624
 2925SOL     OW20805   0.288   6.926   5.125
 2925SOL    HW120806   0.305   6.960   5.033
 2925SOL    HW220807   0.198   6.883   5.128
 2926SOL     OW20808   6.090   2.401   0.785
 2926SOL    HW120809   6.066   2.490   0.825
 2926SOL    HW220810   6.190   2.392   0.781
 2927SOL     OW20811   1.287   4.690   6.642
 2927SOL    HW120812   1.207   4.631   6.657
 2927SOL    HW220813   1.371   4.637   6.655
 2928SOL     OW20814   3.943   7.021   0.638
 2928SOL    HW120815   3.924   6.964   0.718
 2928SOL    HW220816   4.028   6.991   0.595
 2929SOL     OW20817   9.210   7.390   5.061
 2929SOL    HW120818   9.119   7.397   5.101
 2929SOL    HW220819   9.203   7.345   4.972
 2930SOL     OW20820   6.017   2.265   1.030
 2930SOL    HW120821   6.060   2.296   0.945
 2930SOL    HW220822   6.003   2.166   1.026
 2931SOL     OW20823   0.202   7.567   0.609
 2931SOL    HW120824   0.109   7.538   0.630
 2931SOL    HW220825   0.257   7.567   0.692
 2932SOL     OW20826   2.634  -0.033   0.760
 2932SOL    HW120827   2.666   0.034   0.827
 2932SOL    HW220828   2.610  -0.118   0.807
 2933SOL     OW20829   0.444   1.909   1.645
 2933SOL    HW120830   0.478   1.842   1.712
 2933SOL    HW220831   0.503   1.989   1.645
 2934SOL     OW20832   5.346   1.899   5.608
 2934SOL    HW120833   5.310   1.990   5.589
 2934SOL    HW220834   5.431   1.885   5.557
 2935SOL     OW20835   6.883   1.668   0.485
 2935SOL    HW120836   6.823   1.592   0.459
 2935SOL    HW220837   6.977   1.633   0.498
 2936SOL     OW20838   5.270   4.184   6.926
 2936SOL    HW120839   5.335   4.247   6.884
 2936SOL    HW220840   5.318   4.119   6.985
 2937SOL     OW20841   6.777   7.481   1.451
 2937SOL    HW120842   6.696   7.482   1.393
 2937SOL    HW220843   6.855   7.447   1.399
 2938SOL     OW20844   2.579   2.300   6.196
 2938SOL    HW120845   2.566   2.209   6.233
 2938SOL    HW220846   2.528   2.366   6.250
 2939SOL     OW20847   6.322   7.776   1.562
 2939SOL    HW120848   6.359   7.744   1.649
 2939SOL    HW220849   6.395   7.779   1.494
 2940SOL     OW20850   8.093   3.077   1.229
 2940SOL    HW120851   8.150   3.095   1.149
 2940SOL    HW220852   8.132   3.000   1.280
 2941SOL     OW20853   1.067   0.885   1.826
 2941SOL    HW120854   1.146   0.825   1.832
 2941SOL    HW220855   1.073   0.955   1.898
 2942SOL     OW20856   6.347   2.771   0.375
 2942SOL    HW120857   6.397   2.844   0.420
 2942SOL    HW220858   6.391   2.749   0.288
 2943SOL     OW20859   2.301   0.688   6.304
 2943SOL    HW120860   2.322   0.695   6.207
 2943SOL    HW220861   2.382   0.713   6.357
 2944SOL     OW20862   7.496   0.219   0.247
 2944SOL    HW120863   7.446   0.157   0.307
 2944SOL    HW220864   7.488   0.313   0.281
 2945SOL     OW20865   2.485   2.761   6.955
 2945SOL    HW120866   2.567   2.776   7.009
 2945SOL    HW220867   2.409   2.734   7.016
 2946SOL     OW20868   2.820   0.502   1.500
 2946SOL    HW120869   2.794   0.419   1.549
 2946SOL    HW220870   2.763   0.578   1.531
 2947SOL     OW20871   4.294   6.283   6.968
 2947SOL    HW120872   4.360   6.238   6.909
 2947SOL    HW220873   4.341   6.344   7.032
 2948SOL     OW20874   8.490   3.167   0.664
 2948SOL    HW120875   8.423   3.241   0.663
 2948SOL    HW220876   8.578   3.200   0.629
 2949SOL     OW20877   3.043   7.293   6.443
 2949SOL    HW120878   3.032   7.369   6.506
 2949SOL    HW220879   2.963   7.287   6.383
 2950SOL     OW20880   7.565   0.595   0.906
 2950SOL    HW120881   7.520   0.536   0.973
 2950SOL    HW220882   7.551   0.691   0.931
 2951SOL     OW20883   6.453   2.906   1.404
 2951SOL    HW120884   6.439   2.914   1.502
 2951SOL    HW220885   6.445   2.996   1.361
 2952SOL     OW20886   1.614   6.921   0.470
 2952SOL    HW120887   1.673   6.916   0.390
 2952SOL    HW220888   1.576   7.014   0.478
 2953SOL     OW20889   2.870   8.266   5.681
 2953SOL    HW120890   2.927   8.186   5.661
 2953SOL    HW220891   2.858   8.273   5.780
 2954SOL     OW20892   7.774   0.947   0.487
 2954SOL    HW120893   7.727   0.892   0.556
 2954SOL    HW220894   7.779   0.896   0.401
 2955SOL     OW20895   2.679   0.361   5.480
 2955SOL    HW120896   2.759   0.312   5.515
 2955SOL    HW220897   2.696   0.391   5.386
 2956SOL     OW20898   5.794   7.952   5.962
 2956SOL    HW120899   5.864   7.893   6.004
 2956SOL    HW220900   5.834   7.999   5.883
 2957SOL     OW20901   0.146   7.913   6.295
 2957SOL    HW120902   0.106   7.996   6.257
 2957SOL    HW220903   0.112   7.834   6.243
 2958SOL     OW20904   6.665   5.309   0.563
 2958SOL    HW120905   6.651   5.256   0.480
 2958SOL    HW220906   6.577   5.325   0.608
 2959SOL     OW20907   9.430   6.542   1.671
 2959SOL    HW120908   9.446   6.450   1.637
 2959SOL    HW220909   9.360   6.540   1.743
 2960SOL     OW20910   5.423   0.601   0.490
 2960SOL    HW120911   5.413   0.502   0.487
 2960SOL    HW220912   5.375   0.637   0.570
 2961SOL     OW20913   3.977   5.268   2.287
 2961SOL    HW120914   3.988   5.169   2.279
 2961SOL    HW220915   3.887   5.294   2.250
 2962SOL     OW20916   8.518   7.730   4.719
 2962SOL    HW120917   8.556   7.677   4.644
 2962SOL    HW220918   8.421   7.710   4.729
 2963SOL     OW20919   7.785   4.130   6.442
 2963SOL    HW120920   7.695   4.173   6.433
 2963SOL    HW220921   7.854   4.201   6.455
 2964SOL     OW20922   2.806   7.272   6.304
 2964SOL    HW120923   2.717   7.266   6.348
 2964SOL    HW220924   2.805   7.343   6.234
 2965SOL     OW20925   7.675   2.559   1.254
 2965SOL    HW120926   7.751   2.505   1.291
 2965SOL    HW220927   7.673   2.648   1.299
 2966SOL     OW20928   0.949   7.971   0.619
 2966SOL    HW120929   0.895   8.042   0.664
 2966SOL    HW220930   1.032   8.012   0.580
 2967SOL     OW20931   5.489   5.905   6.796
 2967SOL    HW120932   5.560   5.938   6.859
 2967SOL    HW220933   5.523   5.911   6.702
 2968SOL     OW20934   7.576   6.519   1.266
 2968SOL    HW120935   7.500   6.511   1.201
 2968SOL    HW220936   7.587   6.432   1.314
 2969SOL     OW20937   8.359   6.330   0.528
 2969SOL    HW120938   8.425   6.312   0.601
 2969SOL    HW220939   8.295   6.400   0.559
 2970SOL     OW20940   8.594   6.548   0.358
 2970SOL    HW120941   8.626   6.528   0.451
 2970SOL    HW220942   8.499   6.519   0.349
 2971SOL     OW20943   2.855   4.822   1.486
 2971SOL    HW120944   2.865   4.880   1.405
 2971SOL    HW220945   2.800   4.742   1.463
 2972SOL     OW20946   0.891   0.672   1.983
 2972SOL    HW120947   0.802   0.694   1.943
 2972SOL    HW220948   0.921   0.748   2.040
 2973SOL     OW20949   4.063   0.327   0.757
 2973SOL    HW120950   4.095   0.418   0.784
 2973SOL    HW220951   4.137   0.279   0.709
 2974SOL     OW20952   3.765   3.526   6.417
 2974SOL    HW120953   3.823   3.606   6.402
 2974SOL    HW220954   3.813   3.444   6.385
 2975SOL     OW20955   7.860   5.856   5.617
 2975SOL    HW120956   7.794   5.930   5.632
 2975SOL    HW220957   7.848   5.820   5.524
 2976SOL     OW20958   4.350   1.027   0.803
 2976SOL    HW120959   4.338   0.958   0.731
 2976SOL    HW220960   4.415   1.096   0.772
 2977SOL     OW20961   7.596   7.335   5.095
 2977SOL    HW120962   7.510   7.300   5.058
 2977SOL    HW220963   7.595   7.435   5.092
 2978SOL     OW20964   6.408   8.291   0.564
 2978SOL    HW120965   6.335   8.230   0.593
 2978SOL    HW220966   6.371   8.383   0.548
 2979SOL     OW20967   1.621   6.356   5.382
 2979SOL    HW120968   1.592   6.261   5.365
 2979SOL    HW220969   1.673   6.390   5.303
 2980SOL     OW20970   5.160   0.273   0.244
 2980SOL    HW120971   5.201   0.186   0.271
 2980SOL    HW220972   5.220   0.318   0.178
 2981SOL     OW20973   6.988   1.616   6.590
 2981SOL    HW120974   7.013   1.591   6.497
 2981SOL    HW220975   7.065   1.598   6.651
 2982SOL     OW20976   2.232   2.600   0.348
 2982SOL    HW120977   2.204   2.662   0.422
 2982SOL    HW220978   2.152   2.552   0.313
 2983SOL     OW20979   5.844   0.528   4.880
 2983SOL    HW120980   5.757   0.510   4.834
 2983SOL    HW220981   5.875   0.621   4.859
 2984SOL     OW20982   1.768   7.605   6.122
 2984SOL    HW120983   1.711   7.573   6.047
 2984SOL    HW220984   1.723   7.681   6.168
 2985SOL     OW20985   5.829   0.869   0.571
 2985SOL    HW120986   5.839   0.776   0.536
 2985SOL    HW220987   5.733   0.897   0.567
 2986SOL     OW20988   1.672   8.201   1.502
 2986SOL    HW120989   1.578   8.194   1.533
 2986SOL    HW220990   1.688   8.135   1.428
 2987SOL     OW20991   9.280   6.786   0.647
 2987SOL    HW120992   9.193   6.737   0.659
 2987SOL    HW220993   9.265   6.884   0.661
 2988SOL     OW20994   9.438   4.309   0.883
 2988SOL    HW120995   9.356   4.334   0.832
 2988SOL    HW220996   9.445   4.367   0.964
 2989SOL     OW20997   7.017   2.075   6.697
 2989SOL    HW120998   7.024   2.156   6.638
 2989SOL    HW220999   6.924   2.040   6.693
 2990SOL     OW21000   5.242   5.853   6.291
 2990SOL    HW121001   5.148   5.822   6.310
 2990SOL    HW221002   5.291   5.865   6.377
 2991SOL     OW21003   6.809   6.285   1.223
 2991SOL    HW121004   6.800   6.264   1.125
 2991SOL    HW221005   6.718   6.303   1.261
 2992SOL     OW21006   0.466   1.664   0.647
 2992SOL    HW121007   0.372   1.690   0.627
 2992SOL    HW221008   0.495   1.706   0.733
 2993SOL     OW21009   5.798   5.836   0.745
 2993SOL    HW121010   5.854   5.802   0.669
 2993SOL    HW221011   5.789   5.764   0.814
 2994SOL     OW21012   6.871   1.420   0.777
 2994SOL    HW121013   6.875   1.322   0.761
 2994SOL    HW221014   6.953   1.463   0.740
 2995SOL     OW21015   6.086   1.533   6.898
 2995SOL    HW121016   6.076   1.624   6.858
 2995SOL    HW221017   6.036   1.529   6.985
 2996SOL     OW21018   8.482   6.866   6.436
 2996SOL    HW121019   8.529   6.786   6.399
 2996SOL    HW221020   8.450   6.846   6.529
 2997SOL     OW21021   2.072   5.682   6.542
 2997SOL    HW121022   2.106   5.736   6.619
 2997SOL    HW221023   2.113   5.591   6.544
 2998SOL     OW21024   1.713   5.217   1.696
 2998SOL    HW121025   1.648   5.146   1.668
 2998SOL    HW221026   1.806   5.182   1.687
 2999SOL     OW21027   8.856   6.100   6.865
 2999SOL    HW121028   8.805   6.174   6.910
 2999SOL    HW221029   8.947   6.093   6.906
 3000SOL     OW21030   1.703   4.997   0.390
 3000SOL    HW121031   1.605   4.991   0.375
 3000SOL    HW221032   1.751   4.981   0.303
 3001SOL     OW21033   6.963   0.031   5.615
 3001SOL    HW121034   6.983  -0.056   5.659
 3001SOL    HW221035   6.935   0.016   5.520
 3002SOL     OW21036   2.070   7.466   5.600
 3002SOL    HW121037   2.107   7.428   5.515
 3002SOL    HW221038   1.970   7.467   5.594
 3003SOL     OW21039   4.439   2.561   0.624
 3003SOL    HW121040   4.510   2.621   0.660
 3003SOL    HW221041   4.361   2.560   0.686
 3004SOL     OW21042   2.891   6.427   6.244
 3004SOL    HW121043   2.846   6.484   6.312
 3004SOL    HW221044   2.940   6.485   6.179
 3005SOL     OW21045   6.499   3.626   6.060
 3005SOL    HW121046   6.415   3.634   6.005
 3005SOL    HW221047   6.575   3.598   6.001
 3006SOL     OW21048   5.863   1.273   6.523
 3006SOL    HW121049   5.792   1.318   6.468
 3006SOL    HW221050   5.923   1.342   6.564
 3007SOL     OW21051   3.177   1.367   1.238
 3007SOL    HW121052   3.136   1.458   1.233
 3007SOL    HW221053   3.215   1.353   1.329
 3008SOL     OW21054   3.572   4.921   0.346
 3008SOL    HW121055   3.550   5.019   0.347
 3008SOL    HW221056   3.640   4.902   0.417
 3009SOL     OW21057   6.639   3.661   6.543
 3009SOL    HW121058   6.565   3.726   6.526
 3009SOL    HW221059   6.706   3.703   6.605
 3010SOL     OW21060   0.500   2.562   6.726
 3010SOL    HW121061   0.423   2.600   6.778
 3010SOL    HW221062   0.480   2.570   6.628
 3011SOL     OW21063   8.274   2.463   1.174
 3011SOL    HW121064   8.344   2.530   1.201
 3011SOL    HW221065   8.297   2.425   1.084
 3012SOL     OW21066   2.002   1.157   6.671
 3012SOL    HW121067   2.007   1.257   6.678
 3012SOL    HW221068   2.075   1.116   6.726
 3013SOL     OW21069   9.202   3.498   6.250
 3013SOL    HW121070   9.216   3.403   6.276
 3013SOL    HW221071   9.107   3.510   6.220
 3014SOL     OW21072   4.296   5.792   6.853
 3014SOL    HW121073   4.342   5.777   6.941
 3014SOL    HW221074   4.362   5.826   6.786
 3015SOL     OW21075   3.803   3.834   1.172
 3015SOL    HW121076   3.814   3.750   1.226
 3015SOL    HW221077   3.892   3.865   1.139
 3016SOL     OW21078   4.332   2.939   2.092
 3016SOL    HW121079   4.400   2.903   2.155
 3016SOL    HW221080   4.374   3.008   2.032
 3017SOL     OW21081   1.168   0.288   5.863
 3017SOL    HW121082   1.082   0.290   5.914
 3017SOL    HW221083   1.245   0.285   5.927
 3018SOL     OW21084   6.591   6.222   5.706
 3018SOL    HW121085   6.507   6.277   5.713
 3018SOL    HW221086   6.587   6.165   5.624
 3019SOL     OW21087   1.910   6.166   1.376
 3019SOL    HW121088   1.862   6.078   1.371
 3019SOL    HW221089   1.955   6.184   1.289
 3020SOL     OW21090   1.267   5.317   1.727
 3020SOL    HW121091   1.292   5.221   1.716
 3020SOL    HW221092   1.350   5.372   1.735
 3021SOL     OW21093   2.787   2.011   6.256
 3021SOL    HW121094   2.845   2.052   6.186
 3021SOL    HW221095   2.755   1.921   6.226
 3022SOL     OW21096   7.223   6.389   5.637
 3022SOL    HW121097   7.156   6.356   5.703
 3022SOL    HW221098   7.297   6.437   5.684
 3023SOL     OW21099   2.360   1.941   6.250
 3023SOL    HW121100   2.304   1.858   6.250
 3023SOL    HW221101   2.311   2.015   6.205
 3024SOL     OW21102   4.258   4.183   6.664
 3024SOL    HW121103   4.176   4.177   6.607
 3024SOL    HW221104   4.339   4.179   6.605
 3025SOL     OW21105   2.502   6.071   5.688
 3025SOL    HW121106   2.461   6.061   5.597
 3025SOL    HW221107   2.586   6.124   5.681
 3026SOL     OW21108   4.097   1.514   5.460
 3026SOL    HW121109   4.057   1.426   5.436
 3026SOL    HW221110   4.159   1.544   5.387
 3027SOL     OW21111   0.654   2.853   6.410
 3027SOL    HW121112   0.590   2.779   6.391
 3027SOL    HW221113   0.701   2.836   6.497
 3028SOL     OW21114   8.841   2.033   6.697
 3028SOL    HW121115   8.844   1.935   6.716
 3028SOL    HW221116   8.927   2.061   6.654
 3029SOL     OW21117   4.953   6.968   1.435
 3029SOL    HW121118   4.861   6.942   1.464
 3029SOL    HW221119   4.955   6.974   1.335
 3030SOL     OW21120   9.221   6.940   1.125
 3030SOL    HW121121   9.218   7.011   1.195
 3030SOL    HW221122   9.299   6.957   1.064
 3031SOL     OW21123   2.863   4.872   6.891
 3031SOL    HW121124   2.884   4.919   6.976
 3031SOL    HW221125   2.854   4.774   6.908
 3032SOL     OW21126   5.793   2.639   0.639
 3032SOL    HW121127   5.721   2.578   0.672
 3032SOL    HW221128   5.857   2.659   0.713
 3033SOL     OW21129   3.336  -0.034   0.670
 3033SOL    HW121130   3.301   0.001   0.757
 3033SOL    HW221131   3.423   0.010   0.649
 3034SOL     OW21132   1.800   1.392   5.752
 3034SOL    HW121133   1.790   1.488   5.780
 3034SOL    HW221134   1.749   1.333   5.815
 3035SOL     OW21135   4.762   7.907   1.324
 3035SOL    HW121136   4.694   7.975   1.297
 3035SOL    HW221137   4.736   7.818   1.288
 3036SOL     OW21138   2.425   3.401   0.775
 3036SOL    HW121139   2.524   3.401   0.761
 3036SOL    HW221140   2.401   3.462   0.850
 3037SOL     OW21141   9.222   2.064   5.799
 3037SOL    HW121142   9.242   1.971   5.832
 3037SOL    HW221143   9.307   2.112   5.782
 3038SOL     OW21144   4.142   7.600   5.494
 3038SOL    HW121145   4.156   7.681   5.438
 3038SOL    HW221146   4.091   7.532   5.442
 3039SOL     OW21147   3.405   5.321   5.803
 3039SOL    HW121148   3.362   5.246   5.852
 3039SOL    HW221149   3.362   5.408   5.829
 3040SOL     OW21150   9.575   6.810   6.922
 3040SOL    HW121151   9.557   6.757   6.839
 3040SOL    HW221152   9.497   6.870   6.940
 3041SOL     OW21153   4.552   0.698   0.456
 3041SOL    HW121154   4.460   0.667   0.433
 3041SOL    HW221155   4.592   0.744   0.377
 3042SOL     OW21156   0.479   1.866   5.869
 3042SOL    HW121157   0.385   1.883   5.837
 3042SOL    HW221158   0.527   1.809   5.802
 3043SOL     OW21159   9.000   2.305   1.299
 3043SOL    HW121160   9.036   2.253   1.221
 3043SOL    HW221161   8.948   2.243   1.358
 3044SOL     OW21162   4.620   1.492   6.175
 3044SOL    HW121163   4.606   1.590   6.190
 3044SOL    HW221164   4.535   1.443   6.189
 3045SOL     OW21165   6.070   2.021   0.968
 3045SOL    HW121166   6.121   2.002   0.884
 3045SOL    HW221167   6.029   1.936   1.002
 3046SOL     OW21168   5.989   1.023   0.399
 3046SOL    HW121169   6.029   1.089   0.462
 3046SOL    HW221170   5.933   0.958   0.450
 3047SOL     OW21171   1.893  -0.043   0.984
 3047SOL    HW121172   1.941  -0.075   0.903
 3047SOL    HW221173   1.959  -0.022   1.056
 3048SOL     OW21174   3.159   1.620   5.931
 3048SOL    HW121175   3.251   1.659   5.930
 3048SOL    HW221176   3.092   1.693   5.940
 3049SOL     OW21177   0.216   6.417   0.394
 3049SOL    HW121178   0.196   6.473   0.314
 3049SOL    HW221179   0.216   6.320   0.369
 3050SOL     OW21180   7.318   1.417   6.376
 3050SOL    HW121181   7.288   1.472   6.297
 3050SOL    HW221182   7.403   1.455   6.412
 3051SOL     OW21183   3.600   1.047   6.118
 3051SOL    HW121184   3.642   1.013   6.202
 3051SOL    HW221185   3.549   0.972   6.074
 3052SOL     OW21186   6.041   8.010   5.454
 3052SOL    HW121187   5.982   8.090   5.467
 3052SOL    HW221188   6.007   7.956   5.377
 3053SOL     OW21189   9.589   6.498   6.905
 3053SOL    HW121190   9.504   6.445   6.911
 3053SOL    HW221191   9.584   6.558   6.825
 3054SOL     OW21192   3.658   0.730   6.662
 3054SOL    HW121193   3.694   0.696   6.749
 3054SOL    HW221194   3.633   0.827   6.672
 3055SOL     OW21195   6.396   1.294   0.428
 3055SOL    HW121196   6.487   1.274   0.464
 3055SOL    HW221197   6.403   1.364   0.357
 3056SOL     OW21198   0.329   0.186   0.384
 3056SOL    HW121199   0.418   0.233   0.385
 3056SOL    HW221200   0.299   0.172   0.479
 3057SOL     OW21201   8.146   4.350   0.638
 3057SOL    HW121202   8.213   4.393   0.578
 3057SOL    HW221203   8.064   4.408   0.644
 3058SOL     OW21204   9.221   8.371   1.172
 3058SOL    HW121205   9.203   8.324   1.086
 3058SOL    HW221206   9.135   8.385   1.221
 3059SOL     OW21207   5.063   5.047   6.615
 3059SOL    HW121208   5.076   5.146   6.620
 3059SOL    HW221209   5.132   5.001   6.670
 3060SOL     OW21210   7.796   4.486   0.320
 3060SOL    HW121211   7.763   4.477   0.414
 3060SOL    HW221212   7.860   4.412   0.299
 3061SOL     OW21213   3.725   7.638   6.405
 3061SOL    HW121214   3.800   7.682   6.454
 3061SOL    HW221215   3.642   7.643   6.461
 3062SOL     OW21216   3.486   5.159   6.628
 3062SOL    HW121217   3.442   5.211   6.555
 3062SOL    HW221218   3.539   5.221   6.685
 3063SOL     OW21219   2.458   5.704   6.424
 3063SOL    HW121220   2.467   5.692   6.523
 3063SOL    HW221221   2.476   5.799   6.400
 3064SOL     OW21222   7.604   6.780   6.426
 3064SOL    HW121223   7.535   6.708   6.418
 3064SOL    HW221224   7.657   6.784   6.341
 3065SOL     OW21225   1.212   5.619   5.033
 3065SOL    HW121226   1.117   5.645   5.050
 3065SOL    HW221227   1.218   5.572   4.945
 3066SOL     OW21228   0.113   1.976   0.954
 3066SOL    HW121229   0.203   1.935   0.964
 3066SOL    HW221230   0.045   1.904   0.940
 3067SOL     OW21231   7.586   4.615   5.999
 3067SOL    HW121232   7.522   4.625   6.075
 3067SOL    HW221233   7.536   4.617   5.913
 3068SOL     OW21234   3.949   4.466   6.710
 3068SOL    HW121235   3.861   4.461   6.756
 3068SOL    HW221236   3.941   4.520   6.626
 3069SOL     OW21237   6.275   6.909   0.762
 3069SOL    HW121238   6.223   6.982   0.806
 3069SOL    HW221239   6.357   6.947   0.719
 3070SOL     OW21240   3.930   2.345   6.410
 3070SOL    HW121241   3.993   2.358   6.333
 3070SOL    HW221242   3.939   2.253   6.447
 3071SOL     OW21243   2.184   1.280   6.022
 3071SOL    HW121244   2.259   1.227   6.060
 3071SOL    HW221245   2.098   1.229   6.033
 3072SOL     OW21246   5.148   4.215   6.530
 3072SOL    HW121247   5.066   4.255   6.570
 3072SOL    HW221248   5.179   4.271   6.453
 3073SOL     OW21249   3.104   7.336   0.817
 3073SOL    HW121250   3.082   7.257   0.760
 3073SOL    HW221251   3.122   7.305   0.911
 3074SOL     OW21252   4.299   0.908   2.306
 3074SOL    HW121253   4.278   0.813   2.329
 3074SOL    HW221254   4.224   0.947   2.252
 3075SOL     OW21255   5.873   0.667   2.137
 3075SOL    HW121256   5.822   0.693   2.055
 3075SOL    HW221257   5.838   0.717   2.215
 3076SOL     OW21258   1.880   4.140   5.536
 3076SOL    HW121259   1.876   4.066   5.469
 3076SOL    HW221260   1.964   4.193   5.521
 3077SOL     OW21261   0.240   6.280   4.310
 3077SOL    HW121262   0.159   6.229   4.281
 3077SOL    HW221263   0.231   6.376   4.282
 3078SOL     OW21264   8.071   3.160   1.712
 3078SOL    HW121265   8.131   3.223   1.762
 3078SOL    HW221266   8.094   3.066   1.735
 3079SOL     OW21267   5.285   0.456   1.714
 3079SOL    HW121268   5.233   0.504   1.784
 3079SOL    HW221269   5.382   0.479   1.723
 3080SOL     OW21270   7.108   1.329   0.496
 3080SOL    HW121271   7.206   1.321   0.479
 3080SOL    HW221272   7.058   1.308   0.412
 3081SOL     OW21273   1.273   5.044   4.815
 3081SOL    HW121274   1.318   5.120   4.862
 3081SOL    HW221275   1.342   4.984   4.775
 3082SOL     OW21276   0.141   1.825   5.574
 3082SOL    HW121277   0.177   1.744   5.528
 3082SOL    HW221278   0.194   1.906   5.546
 3083SOL     OW21279   1.463   0.813   1.036
 3083SOL    HW121280   1.383   0.758   1.013
 3083SOL    HW221281   1.482   0.804   1.134
 3084SOL     OW21282   3.923   2.200   5.509
 3084SOL    HW121283   3.887   2.130   5.448
 3084SOL    HW221284   3.873   2.285   5.494
 3085SOL     OW21285   1.360   3.543   5.944
 3085SOL    HW121286   1.436   3.538   5.879
 3085SOL    HW221287   1.314   3.631   5.935
 3086SOL     OW21288   7.167   3.959   6.291
 3086SOL    HW121289   7.265   3.957   6.267
 3086SOL    HW221290   7.156   3.940   6.388
 3087SOL     OW21291   5.341   7.000   5.907
 3087SOL    HW121292   5.361   6.903   5.894
 3087SOL    HW221293   5.248   7.019   5.874
 3088SOL     OW21294   7.159   2.514   0.860
 3088SOL    HW121295   7.231   2.522   0.791
 3088SOL    HW221296   7.181   2.571   0.939
 3089SOL     OW21297   5.177   8.227   0.865
 3089SOL    HW121298   5.087   8.245   0.905
 3089SOL    HW221299   5.191   8.286   0.786
 3090SOL     OW21300   6.305   5.754   1.321
 3090SOL    HW121301   6.277   5.658   1.316
 3090SOL    HW221302   6.288   5.789   1.413
 3091SOL     OW21303   5.400   6.641   1.426
 3091SOL    HW121304   5.359   6.554   1.454
 3091SOL    HW221305   5.327   6.709   1.415
 3092SOL     OW21306   3.678   3.437   1.987
 3092SOL    HW121307   3.721   3.519   2.026
 3092SOL    HW221308   3.601   3.409   2.043
 3093SOL     OW21309   5.437   6.163   1.445
 3093SOL    HW121310   5.407   6.119   1.529
 3093SOL    HW221311   5.362   6.165   1.379
 3094SOL     OW21312   8.185   1.707   1.159
 3094SOL    HW121313   8.213   1.741   1.248
 3094SOL    HW221314   8.118   1.634   1.170
 3095SOL     OW21315   8.921   5.395   6.015
 3095SOL    HW121316   8.831   5.437   6.023
 3095SOL    HW221317   8.921   5.326   5.943
 3096SOL     OW21318   8.120   5.021   6.186
 3096SOL    HW121319   8.097   4.940   6.132
 3096SOL    HW221320   8.219   5.027   6.196
 3097SOL     OW21321   7.570   3.044   1.281
 3097SOL    HW121322   7.512   2.984   1.336
 3097SOL    HW221323   7.653   3.065   1.332
 3098SOL     OW21324   6.851   4.720   0.764
 3098SOL    HW121325   6.867   4.628   0.801
 3098SOL    HW221326   6.794   4.713   0.682
 3099SOL     OW21327   1.611   8.419   5.398
 3099SOL    HW121328   1.517   8.451   5.382
 3099SOL    HW221329   1.654   8.396   5.311
 3100SOL     OW21330   2.582   5.627   0.555
 3100SOL    HW121331   2.528   5.687   0.614
 3100SOL    HW221332   2.526   5.548   0.530
 3101SOL     OW21333   4.094   2.197   1.864
 3101SOL    HW121334   4.121   2.248   1.783
 3101SOL    HW221335   4.062   2.260   1.934
 3102SOL     OW21336   8.135   6.516   1.217
 3102SOL    HW121337   8.082   6.529   1.301
 3102SOL    HW221338   8.149   6.418   1.200
 3103SOL     OW21339   2.527   7.590   4.864
 3103SOL    HW121340   2.517   7.588   4.764
 3103SOL    HW221341   2.593   7.661   4.889
 3104SOL     OW21342   2.756   7.067   0.310
 3104SOL    HW121343   2.739   7.040   0.215
 3104SOL    HW221344   2.710   7.002   0.372
 3105SOL     OW21345   4.909   0.585   1.197
 3105SOL    HW121346   4.999   0.628   1.193
 3105SOL    HW221347   4.890   0.554   1.291
 3106SOL     OW21348   0.662   1.479   5.665
 3106SOL    HW121349   0.577   1.456   5.618
 3106SOL    HW221350   0.663   1.576   5.688
 3107SOL     OW21351   9.157   3.903   0.825
 3107SOL    HW121352   9.065   3.942   0.836
 3107SOL    HW221353   9.176   3.841   0.901
 3108SOL     OW21354   8.404   1.923   6.533
 3108SOL    HW121355   8.350   1.848   6.572
 3108SOL    HW221356   8.482   1.885   6.483
 3109SOL     OW21357   0.847   1.211   6.948
 3109SOL    HW121358   0.750   1.237   6.958
 3109SOL    HW221359   0.884   1.254   6.867
 3110SOL     OW21360   3.171   8.197   1.249
 3110SOL    HW121361   3.161   8.099   1.231
 3110SOL    HW221362   3.192   8.212   1.346
 3111SOL     OW21363   6.689   3.482   1.185
 3111SOL    HW121364   6.649   3.568   1.153
 3111SOL    HW221365   6.680   3.412   1.114
 3112SOL     OW21366   8.132   4.055   5.852
 3112SOL    HW121367   8.111   4.024   5.945
 3112SOL    HW221368   8.107   3.983   5.787
 3113SOL     OW21369   8.975   5.863   6.052
 3113SOL    HW121370   8.926   5.897   5.972
 3113SOL    HW221371   9.070   5.844   6.027
 3114SOL     OW21372   3.368   7.466   2.046
 3114SOL    HW121373   3.401   7.417   2.127
 3114SOL    HW221374   3.368   7.564   2.065
 3115SOL     OW21375   3.420   6.797   6.329
 3115SOL    HW121376   3.515   6.782   6.299
 3115SOL    HW221377   3.405   6.751   6.416
 3116SOL     OW21378   6.857   6.804   5.499
 3116SOL    HW121379   6.930   6.873   5.496
 3116SOL    HW221380   6.842   6.768   5.407
 3117SOL     OW21381   4.081   0.540   1.644
 3117SOL    HW121382   4.162   0.481   1.646
 3117SOL    HW221383   4.110   0.636   1.636
 3118SOL     OW21384   8.045   2.973   6.572
 3118SOL    HW121385   8.006   3.054   6.617
 3118SOL    HW221386   7.976   2.933   6.511
 3119SOL     OW21387   1.838   7.773   5.717
 3119SOL    HW121388   1.883   7.791   5.630
 3119SOL    HW221389   1.901   7.792   5.792
 3120SOL     OW21390   8.651   5.966   0.968
 3120SOL    HW121391   8.606   5.905   0.903
 3120SOL    HW221392   8.745   5.984   0.937
 3121SOL     OW21393   5.278   8.081   2.296
 3121SOL    HW121394   5.363   8.116   2.334
 3121SOL    HW221395   5.277   7.981   2.303
 3122SOL     OW21396   7.879   0.944   5.969
 3122SOL    HW121397   7.920   0.908   5.886
 3122SOL    HW221398   7.781   0.958   5.955
 3123SOL     OW21399   1.825   2.391   6.486
 3123SOL    HW121400   1.726   2.391   6.472
 3123SOL    HW221401   1.849   2.460   6.554
 3124SOL     OW21402   8.870  -0.063   6.098
 3124SOL    HW121403   8.857  -0.112   6.184
 3124SOL    HW221404   8.927   0.018   6.114
 3125SOL     OW21405   8.701   2.694   1.331
 3125SOL    HW121406   8.740   2.680   1.422
 3125SOL    HW221407   8.775   2.706   1.265
 3126SOL     OW21408   1.621   2.348   5.443
 3126SOL    HW121409   1.576   2.271   5.398
 3126SOL    HW221410   1.701   2.375   5.390
 3127SOL     OW21411   6.586   1.807   5.586
 3127SOL    HW121412   6.622   1.715   5.603
 3127SOL    HW221413   6.487   1.805   5.589
 3128SOL     OW21414   4.497   0.812   1.630
 3128SOL    HW121415   4.401   0.786   1.634
 3128SOL    HW221416   4.508   0.904   1.668
 3129SOL     OW21417   6.250   6.128   5.711
 3129SOL    HW121418   6.295   6.101   5.796
 3129SOL    HW221419   6.157   6.092   5.710
 3130SOL     OW21420   9.443   1.099   5.801
 3130SOL    HW121421   9.379   1.025   5.823
 3130SOL    HW221422   9.535   1.073   5.831
 3131SOL     OW21423   5.362   7.999   0.463
 3131SOL    HW121424   5.450   8.044   0.478
 3131SOL    HW221425   5.314   8.043   0.387
 3132SOL     OW21426   2.565   4.084   6.921
 3132SOL    HW121427   2.501   4.044   6.987
 3132SOL    HW221428   2.514   4.119   6.842
 3133SOL     OW21429   0.808   5.674   5.511
 3133SOL    HW121430   0.886   5.616   5.534
 3133SOL    HW221431   0.744   5.623   5.453
 3134SOL     OW21432   1.345   3.027   1.171
 3134SOL    HW121433   1.384   3.101   1.225
 3134SOL    HW221434   1.290   3.064   1.097
 3135SOL     OW21435   8.382   2.143   0.793
 3135SOL    HW121436   8.389   2.210   0.720
 3135SOL    HW221437   8.466   2.090   0.798
 3136SOL     OW21438   1.321   2.437   0.448
 3136SOL    HW121439   1.301   2.450   0.545
 3136SOL    HW221440   1.285   2.349   0.418
 3137SOL     OW21441   4.668   0.238   5.728
 3137SOL    HW121442   4.728   0.317   5.718
 3137SOL    HW221443   4.635   0.209   5.638
 3138SOL     OW21444   6.773   1.587   2.079
 3138SOL    HW121445   6.765   1.507   2.139
 3138SOL    HW221446   6.693   1.645   2.090
 3139SOL     OW21447   6.794   5.994   1.172
 3139SOL    HW121448   6.826   6.085   1.198
 3139SOL    HW221449   6.860   5.925   1.202
 3140SOL     OW21450   4.196   1.054   6.530
 3140SOL    HW121451   4.284   1.046   6.576
 3140SOL    HW221452   4.129   1.095   6.592
 3141SOL     OW21453   4.402   7.106   1.305
 3141SOL    HW121454   4.338   7.183   1.316
 3141SOL    HW221455   4.474   7.113   1.373
 3142SOL     OW21456   7.360   2.644   1.315
 3142SOL    HW121457   7.435   2.709   1.299
 3142SOL    HW221458   7.306   2.674   1.394
 3143SOL     OW21459   1.118   2.823   0.555
 3143SOL    HW121460   1.168   2.814   0.469
 3143SOL    HW221461   1.136   2.744   0.613
 3144SOL     OW21462   1.655   0.015   1.847
 3144SOL    HW121463   1.594  -0.063   1.860
 3144SOL    HW221464   1.750  -0.014   1.859
 3145SOL     OW21465   5.915   5.667   1.391
 3145SOL    HW121466   5.962   5.585   1.422
 3145SOL    HW221467   5.900   5.662   1.292
 3146SOL     OW21468   3.238   4.765   1.400
 3146SOL    HW121469   3.249   4.721   1.312
 3146SOL    HW221470   3.185   4.706   1.461
 3147SOL     OW21471   5.484   4.791   5.947
 3147SOL    HW121472   5.471   4.799   6.046
 3147SOL    HW221473   5.396   4.803   5.901
 3148SOL     OW21474   5.302   6.804   6.535
 3148SOL    HW121475   5.358   6.754   6.601
 3148SOL    HW221476   5.283   6.746   6.457
 3149SOL     OW21477   6.795   2.230   1.497
 3149SOL    HW121478   6.740   2.146   1.500
 3149SOL    HW221479   6.736   2.308   1.477
 3150SOL     OW21480   2.233   6.349   6.038
 3150SOL    HW121481   2.318   6.314   6.078
 3150SOL    HW221482   2.208   6.292   5.959
 3151SOL     OW21483   2.937   0.998   0.678
 3151SOL    HW121484   2.855   0.941   0.674
 3151SOL    HW221485   3.017   0.939   0.693
 3152SOL     OW21486   8.681   6.678   6.715
 3152SOL    HW121487   8.712   6.766   6.678
 3152SOL    HW221488   8.601   6.693   6.773
 3153SOL     OW21489   7.371   1.281   0.409
 3153SOL    HW121490   7.415   1.331   0.334
 3153SOL    HW221491   7.428   1.286   0.491
 3154SOL     OW21492   4.033   6.908   6.377
 3154SOL    HW121493   4.080   6.928   6.291
 3154SOL    HW221494   3.943   6.952   6.376
 3155SOL     OW21495   8.921   5.492   6.513
 3155SOL    HW121496   8.929   5.587   6.544
 3155SOL    HW221497   8.953   5.486   6.418
 3156SOL     OW21498   4.504   6.911   6.879
 3156SOL    HW121499   4.481   6.844   6.808
 3156SOL    HW221500   4.496   7.003   6.842
 3157SOL     OW21501   2.725   8.062   0.678
 3157SOL    HW121502   2.669   7.995   0.630
 3157SOL    HW221503   2.822   8.041   0.665
 3158SOL     OW21504   4.992   6.160   6.581
 3158SOL    HW121505   4.942   6.089   6.531
 3158SOL    HW221506   4.930   6.210   6.641
 3159SOL     OW21507   5.574   0.472   4.802
 3159SOL    HW121508   5.554   0.406   4.874
 3159SOL    HW221509   5.526   0.445   4.718
 3160SOL     OW21510   0.677   5.748   1.195
 3160SOL    HW121511   0.722   5.837   1.189
 3160SOL    HW221512   0.648   5.731   1.289
 3161SOL     OW21513   7.066   5.652   1.819
 3161SOL    HW121514   6.970   5.667   1.845
 3161SOL    HW221515   7.126   5.683   1.892
 3162SOL     OW21516   0.346   8.030   5.746
 3162SOL    HW121517   0.329   8.111   5.689
 3162SOL    HW221518   0.345   8.055   5.842
 3163SOL     OW21519   2.698   2.208   6.889
 3163SOL    HW121520   2.635   2.199   6.812
 3163SOL    HW221521   2.656   2.167   6.970
 3164SOL     OW21522   2.257   6.246   6.961
 3164SOL    HW121523   2.344   6.229   6.916
 3164SOL    HW221524   2.263   6.219   7.057
 3165SOL     OW21525   4.094   7.508   6.272
 3165SOL    HW121526   4.178   7.457   6.288
 3165SOL    HW221527   4.113   7.606   6.276
 3166SOL     OW21528   6.283   5.182   6.322
 3166SOL    HW121529   6.355   5.127   6.280
 3166SOL    HW221530   6.196   5.165   6.274
 3167SOL     OW21531   4.495   4.114   2.294
 3167SOL    HW121532   4.570   4.051   2.313
 3167SOL    HW221533   4.518   4.172   2.217
 3168SOL     OW21534   4.890   1.349   5.611
 3168SOL    HW121535   4.797   1.314   5.622
 3168SOL    HW221536   4.889   1.428   5.550
 3169SOL     OW21537   4.342   3.199   5.921
 3169SOL    HW121538   4.329   3.224   5.825
 3169SOL    HW221539   4.351   3.282   5.976
 3170SOL     OW21540   8.647   4.248   0.382
 3170SOL    HW121541   8.664   4.346   0.370
 3170SOL    HW221542   8.731   4.204   0.416
 3171SOL     OW21543   4.378   6.085   6.383
 3171SOL    HW121544   4.332   6.106   6.470
 3171SOL    HW221545   4.321   6.023   6.329
 3172SOL     OW21546   6.665   7.070   5.286
 3172SOL    HW121547   6.750   7.056   5.235
 3172SOL    HW221548   6.610   6.986   5.282
 3173SOL     OW21549   1.515   3.714   1.553
 3173SOL    HW121550   1.452   3.677   1.485
 3173SOL    HW221551   1.572   3.640   1.590
 3174SOL     OW21552   5.787   7.318   5.363
 3174SOL    HW121553   5.831   7.408   5.356
 3174SOL    HW221554   5.709   7.314   5.301
 3175SOL     OW21555   8.362   4.422   1.480
 3175SOL    HW121556   8.289   4.356   1.461
 3175SOL    HW221557   8.322   4.513   1.492
 3176SOL     OW21558   0.467   4.879   0.836
 3176SOL    HW121559   0.559   4.861   0.801
 3176SOL    HW221560   0.399   4.858   0.766
 3177SOL     OW21561   5.678   6.533   6.613
 3177SOL    HW121562   5.637   6.454   6.567
 3177SOL    HW221563   5.693   6.606   6.546
 3178SOL     OW21564   2.102   4.705   6.724
 3178SOL    HW121565   2.160   4.786   6.720
 3178SOL    HW221566   2.101   4.660   6.635
 3179SOL     OW21567   7.562   6.278   6.234
 3179SOL    HW121568   7.598   6.352   6.176
 3179SOL    HW221569   7.562   6.192   6.183
 3180SOL     OW21570   1.055   0.526   6.215
 3180SOL    HW121571   1.085   0.531   6.120
 3180SOL    HW221572   1.099   0.449   6.260
 3181SOL     OW21573   5.014   1.329   6.663
 3181SOL    HW121574   5.096   1.304   6.716
 3181SOL    HW221575   4.963   1.400   6.711
 3182SOL     OW21576   6.660   2.450   2.287
 3182SOL    HW121577   6.622   2.492   2.369
 3182SOL    HW221578   6.744   2.498   2.261
 3183SOL     OW21579   2.690   2.789   1.557
 3183SOL    HW121580   2.767   2.852   1.561
 3183SOL    HW221581   2.719   2.703   1.513
 3184SOL     OW21582   8.854   3.559   0.617
 3184SOL    HW121583   8.915   3.481   0.634
 3184SOL    HW221584   8.794   3.536   0.540
 3185SOL     OW21585   6.895   4.643   6.878
 3185SOL    HW121586   6.911   4.683   6.788
 3185SOL    HW221587   6.891   4.543   6.869
 3186SOL     OW21588   1.027   2.642   1.746
 3186SOL    HW121589   0.934   2.635   1.782
 3186SOL    HW221590   1.093   2.615   1.817
 3187SOL     OW21591   4.824   4.048   5.547
 3187SOL    HW121592   4.746   3.988   5.530
 3187SOL    HW221593   4.895   3.999   5.597
 3188SOL     OW21594   8.732   7.267   0.432
 3188SOL    HW121595   8.773   7.284   0.342
 3188SOL    HW221596   8.684   7.179   0.431
 3189SOL     OW21597   7.979   7.212   1.222
 3189SOL    HW121598   7.984   7.287   1.287
 3189SOL    HW221599   8.070   7.195   1.184
 3190SOL     OW21600   7.753   7.448   6.852
 3190SOL    HW121601   7.722   7.539   6.880
 3190SOL    HW221602   7.677   7.399   6.809
 3191SOL     OW21603   5.836   3.291   1.494
 3191SOL    HW121604   5.917   3.320   1.545
 3191SOL    HW221605   5.796   3.211   1.539
 3192SOL     OW21606   2.847   0.253   1.641
 3192SOL    HW121607   2.805   0.229   1.554
 3192SOL    HW221608   2.819   0.187   1.711
 3193SOL     OW21609   8.393   7.683   5.224
 3193SOL    HW121610   8.341   7.757   5.182
 3193SOL    HW221611   8.461   7.720   5.286
 3194SOL     OW21612   1.712   0.384   6.139
 3194SOL    HW121613   1.663   0.428   6.064
 3194SOL    HW221614   1.681   0.422   6.226
 3195SOL     OW21615   4.844   5.415   1.850
 3195SOL    HW121616   4.798   5.355   1.915
 3195SOL    HW221617   4.798   5.504   1.847
 3196SOL     OW21618   5.201   6.830   1.382
 3196SOL    HW121619   5.123   6.870   1.429
 3196SOL    HW221620   5.231   6.891   1.310
 3197SOL     OW21621   4.252   4.741   1.428
 3197SOL    HW121622   4.184   4.673   1.400
 3197SOL    HW221623   4.335   4.730   1.374
 3198SOL     OW21624   6.406   1.514   1.594
 3198SOL    HW121625   6.325   1.481   1.546
 3198SOL    HW221626   6.462   1.568   1.531
 3199SOL     OW21627   3.458   6.109   1.500
 3199SOL    HW121628   3.360   6.121   1.520
 3199SOL    HW221629   3.497   6.041   1.562
 3200SOL     OW21630   8.739   6.080   5.534
 3200SOL    HW121631   8.705   6.055   5.625
 3200SOL    HW221632   8.762   5.997   5.483
 3201SOL     OW21633   4.531   5.993   1.375
 3201SOL    HW121634   4.504   6.077   1.420
 3201SOL    HW221635   4.461   5.923   1.387
 3202SOL     OW21636   4.826   5.162   0.754
 3202SOL    HW121637   4.792   5.211   0.674
 3202SOL    HW221638   4.757   5.095   0.784
 3203SOL     OW21639   6.946   0.243   1.009
 3203SOL    HW121640   6.948   0.167   1.075
 3203SOL    HW221641   6.982   0.211   0.921
 3204SOL     OW21642   8.275   4.252   6.569
 3204SOL    HW121643   8.346   4.224   6.505
 3204SOL    HW221644   8.189   4.266   6.520
 3205SOL     OW21645   0.944   6.718   5.562
 3205SOL    HW121646   0.869   6.757   5.509
 3205SOL    HW221647   1.000   6.792   5.600
 3206SOL     OW21648   7.642   5.600   1.396
 3206SOL    HW121649   7.625   5.551   1.481
 3206SOL    HW221650   7.732   5.643   1.399
 3207SOL     OW21651   5.493   4.850   1.168
 3207SOL    HW121652   5.533   4.761   1.142
 3207SOL    HW221653   5.563   4.921   1.159
 3208SOL     OW21654   4.145   6.656   5.571
 3208SOL    HW121655   4.078   6.701   5.629
 3208SOL    HW221656   4.137   6.557   5.581
 3209SOL     OW21657   4.334   0.196   0.757
 3209SOL    HW121658   4.362   0.181   0.852
 3209SOL    HW221659   4.290   0.114   0.722
 3210SOL     OW21660   5.042   8.146   6.397
 3210SOL    HW121661   5.127   8.196   6.415
 3210SOL    HW221662   5.006   8.109   6.483
 3211SOL     OW21663   0.337   5.441   0.474
 3211SOL    HW121664   0.241   5.412   0.472
 3211SOL    HW221665   0.392   5.369   0.517
 3212SOL     OW21666   0.604   8.418   6.662
 3212SOL    HW121667   0.538   8.346   6.641
 3212SOL    HW221668   0.695   8.378   6.668
 3213SOL     OW21669   2.360   2.491   5.910
 3213SOL    HW121670   2.424   2.550   5.958
 3213SOL    HW221671   2.279   2.477   5.966
 3214SOL     OW21672   5.131  -0.032   0.741
 3214SOL    HW121673   5.120   0.010   0.831
 3214SOL    HW221674   5.041  -0.042   0.699
 3215SOL     OW21675   0.470   5.193   6.659
 3215SOL    HW121676   0.499   5.288   6.673
 3215SOL    HW221677   0.388   5.191   6.603
 3216SOL     OW21678   1.594   4.255   6.013
 3216SOL    HW121679   1.562   4.318   6.084
 3216SOL    HW221680   1.623   4.307   5.933
 3217SOL     OW21681   2.527   4.804   6.657
 3217SOL    HW121682   2.511   4.790   6.755
 3217SOL    HW221683   2.625   4.807   6.639
 3218SOL     OW21684   0.297   4.812   1.027
 3218SOL    HW121685   0.320   4.826   1.123
 3218SOL    HW221686   0.365   4.857   0.969
 3219SOL     OW21687   0.340   0.949   6.492
 3219SOL    HW121688   0.369   0.856   6.515
 3219SOL    HW221689   0.391   1.013   6.550
 3220SOL     OW21690   7.277   7.902   6.501
 3220SOL    HW121691   7.263   7.998   6.478
 3220SOL    HW221692   7.332   7.858   6.430
 3221SOL     OW21693   0.988   2.036   5.936
 3221SOL    HW121694   1.072   2.000   5.978
 3221SOL    HW221695   1.013   2.102   5.865
 3222SOL     OW21696   6.599   4.356   6.554
 3222SOL    HW121697   6.535   4.335   6.628
 3222SOL    HW221698   6.570   4.310   6.471
 3223SOL     OW21699   1.194   5.622   1.470
 3223SOL    HW121700   1.294   5.624   1.468
 3223SOL    HW221701   1.162   5.650   1.561
 3224SOL     OW21702   3.658   4.230   0.910
 3224SOL    HW121703   3.663   4.162   0.984
 3224SOL    HW221704   3.748   4.237   0.866
 3225SOL     OW21705   8.662   0.775   5.796
 3225SOL    HW121706   8.568   0.809   5.796
 3225SOL    HW221707   8.685   0.741   5.704
 3226SOL     OW21708   0.158   5.397   5.297
 3226SOL    HW121709   0.238   5.354   5.255
 3226SOL    HW221710   0.091   5.327   5.321
 3227SOL     OW21711   4.409   7.986   0.334
 3227SOL    HW121712   4.496   7.961   0.292
 3227SOL    HW221713   4.423   8.006   0.431
 3228SOL     OW21714   3.155   6.334   0.519
 3228SOL    HW121715   3.205   6.385   0.589
 3228SOL    HW221716   3.083   6.279   0.562
 3229SOL     OW21717   8.698   2.310   0.599
 3229SOL    HW121718   8.600   2.322   0.618
 3229SOL    HW221719   8.734   2.391   0.554
 3230SOL     OW21720   5.292   2.782   6.677
 3230SOL    HW121721   5.389   2.791   6.657
 3230SOL    HW221722   5.268   2.685   6.685
 3231SOL     OW21723   2.052   1.884   1.116
 3231SOL    HW121724   2.001   1.922   1.193
 3231SOL    HW221725   2.004   1.804   1.081
 3232SOL     OW21726   9.592   3.830   0.702
 3232SOL    HW121727   9.540   3.815   0.619
 3232SOL    HW221728   9.557   3.910   0.750
 3233SOL     OW21729   2.235   4.929   0.738
 3233SOL    HW121730   2.156   4.868   0.749
 3233SOL    HW221731   2.289   4.929   0.823
 3234SOL     OW21732   3.753   6.372   1.650
 3234SOL    HW121733   3.851   6.380   1.668
 3234SOL    HW221734   3.703   6.381   1.736
 3235SOL     OW21735   2.243   1.336   5.376
 3235SOL    HW121736   2.213   1.417   5.325
 3235SOL    HW221737   2.243   1.256   5.316
 3236SOL     OW21738   6.088   7.652   0.443
 3236SOL    HW121739   6.017   7.585   0.422
 3236SOL    HW221740   6.164   7.642   0.378
 3237SOL     OW21741   8.832   7.141   5.456
 3237SOL    HW121742   8.831   7.056   5.403
 3237SOL    HW221743   8.831   7.120   5.554
 3238SOL     OW21744   7.959   7.786   6.665
 3238SOL    HW121745   7.869   7.809   6.626
 3238SOL    HW221746   7.953   7.785   6.765
 3239SOL     OW21747   2.052   2.037   6.817
 3239SOL    HW121748   2.013   1.950   6.785
 3239SOL    HW221749   2.016   2.058   6.907
 3240SOL     OW21750   5.921   7.760   1.164
 3240SOL    HW121751   5.923   7.739   1.261
 3240SOL    HW221752   5.905   7.857   1.151
 3241SOL     OW21753   7.456   0.531   6.486
 3241SOL    HW121754   7.405   0.589   6.550
 3241SOL    HW221755   7.480   0.445   6.530
 3242SOL     OW21756   4.478   0.598   2.508
 3242SOL    HW121757   4.382   0.612   2.532
 3242SOL    HW221758   4.515   0.681   2.467
 3243SOL     OW21759   6.526   5.944   5.842
 3243SOL    HW121760   6.451   5.993   5.886
 3243SOL    HW221761   6.581   6.009   5.789
 3244SOL     OW21762   1.976   7.970   6.747
 3244SOL    HW121763   2.014   8.023   6.823
 3244SOL    HW221764   1.887   7.933   6.774
 3245SOL     OW21765   2.825   3.994   1.666
 3245SOL    HW121766   2.914   4.038   1.656
 3245SOL    HW221767   2.834   3.914   1.726
 3246SOL     OW21768   1.667   3.172   5.931
 3246SOL    HW121769   1.702   3.216   6.014
 3246SOL    HW221770   1.667   3.238   5.855
 3247SOL     OW21771   0.545   0.198   0.762
 3247SOL    HW121772   0.538   0.189   0.861
 3247SOL    HW221773   0.584   0.115   0.724
 3248SOL     OW21774   6.064   6.545   1.610
 3248SOL    HW121775   6.122   6.608   1.558
 3248SOL    HW221776   5.976   6.589   1.629
 3249SOL     OW21777   3.068   5.895   0.836
 3249SOL    HW121778   3.160   5.883   0.799
 3249SOL    HW221779   3.015   5.811   0.819
 3250SOL     OW21780   0.189   4.737   0.414
 3250SOL    HW121781   0.232   4.670   0.353
 3250SOL    HW221782   0.214   4.830   0.384
 3251SOL     OW21783   3.482   0.054   6.336
 3251SOL    HW121784   3.570   0.021   6.370
 3251SOL    HW221785   3.411  -0.014   6.356
 3252SOL     OW21786   4.642   5.503   1.476
 3252SOL    HW121787   4.655   5.495   1.377
 3252SOL    HW221788   4.708   5.443   1.523
 3253SOL     OW21789   7.252   1.008   6.573
 3253SOL    HW121790   7.178   0.943   6.554
 3253SOL    HW221791   7.270   1.011   6.671
 3254SOL     OW21792   4.124   6.246   0.425
 3254SOL    HW121793   4.051   6.187   0.391
 3254SOL    HW221794   4.193   6.259   0.354
 3255SOL     OW21795   2.982   1.672   0.824
 3255SOL    HW121796   3.009   1.669   0.920
 3255SOL    HW221797   3.057   1.709   0.770
 3256SOL     OW21798   1.165   3.815   0.803
 3256SOL    HW121799   1.144   3.728   0.846
 3256SOL    HW221800   1.082   3.870   0.796
 3257SOL     OW21801   7.227   3.278   5.562
 3257SOL    HW121802   7.228   3.373   5.531
 3257SOL    HW221803   7.305   3.230   5.524
 3258SOL     OW21804   3.343   5.859   0.724
 3258SOL    HW121805   3.337   5.760   0.734
 3258SOL    HW221806   3.356   5.882   0.628
 3259SOL     OW21807   1.126   0.092   6.156
 3259SOL    HW121808   1.099   0.033   6.232
 3259SOL    HW221809   1.044   0.120   6.105
 3260SOL     OW21810   5.553   7.354   6.605
 3260SOL    HW121811   5.582   7.324   6.514
 3260SOL    HW221812   5.488   7.288   6.643
 3261SOL     OW21813   8.069   6.576   6.037
 3261SOL    HW121814   8.164   6.560   6.066
 3261SOL    HW221815   8.009   6.512   6.084
 3262SOL     OW21816   8.516   3.704   6.152
 3262SOL    HW121817   8.490   3.764   6.076
 3262SOL    HW221818   8.434   3.678   6.204
 3263SOL     OW21819   4.857   7.919   5.294
 3263SOL    HW121820   4.796   7.936   5.216
 3263SOL    HW221821   4.802   7.898   5.375
 3264SOL     OW21822   5.340   7.711   1.213
 3264SOL    HW121823   5.282   7.680   1.289
 3264SOL    HW221824   5.304   7.674   1.127
 3265SOL     OW21825   2.228   6.001   1.612
 3265SOL    HW121826   2.261   6.068   1.678
 3265SOL    HW221827   2.294   5.926   1.603
 3266SOL     OW21828   0.821   8.385   6.279
 3266SOL    HW121829   0.812   8.286   6.291
 3266SOL    HW221830   0.905   8.415   6.326
 3267SOL     OW21831   5.345   4.923   1.406
 3267SOL    HW121832   5.391   5.011   1.412
 3267SOL    HW221833   5.399   4.861   1.349
 3268SOL     OW21834   2.058   8.086   1.131
 3268SOL    HW121835   2.058   7.995   1.089
 3268SOL    HW221836   2.042   8.078   1.229
 3269SOL     OW21837   6.579   5.524   6.412
 3269SOL    HW121838   6.589   5.520   6.312
 3269SOL    HW221839   6.568   5.431   6.448
 3270SOL     OW21840   4.895   1.473   4.976
 3270SOL    HW121841   4.833   1.452   5.051
 3270SOL    HW221842   4.861   1.553   4.926
 3271SOL     OW21843   2.785   6.154   5.684
 3271SOL    HW121844   2.845   6.102   5.745
 3271SOL    HW221845   2.799   6.124   5.590
 3272SOL     OW21846   1.446   0.502   0.389
 3272SOL    HW121847   1.421   0.409   0.362
 3272SOL    HW221848   1.461   0.505   0.488
 3273SOL     OW21849   6.010   4.437   5.853
 3273SOL    HW121850   5.918   4.443   5.814
 3273SOL    HW221851   6.004   4.401   5.946
 3274SOL     OW21852   3.982   1.767   5.572
 3274SOL    HW121853   3.997   1.852   5.521
 3274SOL    HW221854   4.025   1.691   5.523
 3275SOL     OW21855   6.645   0.278   5.432
 3275SOL    HW121856   6.658   0.317   5.341
 3275SOL    HW221857   6.552   0.241   5.440
 3276SOL     OW21858   4.898   6.767   0.619
 3276SOL    HW121859   4.912   6.690   0.558
 3276SOL    HW221860   4.825   6.826   0.584
 3277SOL     OW21861   2.036   5.826   0.737
 3277SOL    HW121862   1.996   5.850   0.648
 3277SOL    HW221863   2.125   5.872   0.746
 3278SOL     OW21864   4.285   4.124   1.950
 3278SOL    HW121865   4.368   4.090   1.907
 3278SOL    HW221866   4.267   4.072   2.033
 3279SOL     OW21867   8.610   3.839   6.770
 3279SOL    HW121868   8.651   3.797   6.851
 3279SOL    HW221869   8.652   3.928   6.754
 3280SOL     OW21870   4.371   0.333   0.342
 3280SOL    HW121871   4.414   0.362   0.257
 3280SOL    HW221872   4.404   0.390   0.417
 3281SOL     OW21873   5.279   6.298   5.590
 3281SOL    HW121874   5.268   6.261   5.683
 3281SOL    HW221875   5.367   6.346   5.584
 3282SOL     OW21876   5.772   4.428   1.220
 3282SOL    HW121877   5.768   4.357   1.149
 3282SOL    HW221878   5.824   4.394   1.298
 3283SOL     OW21879   7.375   7.832   0.616
 3283SOL    HW121880   7.301   7.803   0.555
 3283SOL    HW221881   7.384   7.765   0.691
 3284SOL     OW21882   6.999   4.357   0.629
 3284SOL    HW121883   7.093   4.326   0.644
 3284SOL    HW221884   6.959   4.305   0.553
 3285SOL     OW21885   2.190   3.338   6.217
 3285SOL    HW121886   2.267   3.391   6.253
 3285SOL    HW221887   2.209   3.313   6.122
 3286SOL     OW21888   0.946   0.413   2.033
 3286SOL    HW121889   0.940   0.513   2.024
 3286SOL    HW221890   1.035   0.389   2.071
 3287SOL     OW21891   4.911   1.638   6.568
 3287SOL    HW121892   4.843   1.703   6.535
 3287SOL    HW221893   4.997   1.686   6.589
 3288SOL     OW21894   1.904   2.123   0.967
 3288SOL    HW121895   1.938   2.139   0.874
 3288SOL    HW221896   1.805   2.110   0.964
 3289SOL     OW21897   4.001   5.667   1.156
 3289SOL    HW121898   4.027   5.757   1.122
 3289SOL    HW221899   3.930   5.628   1.098
 3290SOL     OW21900   3.762   7.185   6.665
 3290SOL    HW121901   3.692   7.154   6.729
 3290SOL    HW221902   3.852   7.158   6.700
 3291SOL     OW21903   1.637   2.252   0.484
 3291SOL    HW121904   1.631   2.296   0.394
 3291SOL    HW221905   1.703   2.301   0.541
 3292SOL     OW21906   5.426   3.357   6.442
 3292SOL    HW121907   5.339   3.408   6.445
 3292SOL    HW221908   5.500   3.420   6.417
 3293SOL     OW21909   5.015   7.983   1.170
 3293SOL    HW121910   5.001   7.889   1.141
 3293SOL    HW221911   4.926   8.029   1.176
 3294SOL     OW21912   5.275   1.410   6.116
 3294SOL    HW121913   5.332   1.473   6.064
 3294SOL    HW221914   5.220   1.355   6.053
 3295SOL     OW21915   6.855   0.948   1.033
 3295SOL    HW121916   6.875   0.917   0.940
 3295SOL    HW221917   6.757   0.944   1.049
 3296SOL     OW21918   5.531   5.998   0.680
 3296SOL    HW121919   5.615   5.958   0.716
 3296SOL    HW221920   5.552   6.054   0.600
 3297SOL     OW21921   2.177   2.222   0.659
 3297SOL    HW121922   2.212   2.225   0.566
 3297SOL    HW221923   2.246   2.180   0.719
 3298SOL     OW21924   6.986   7.435   5.639
 3298SOL    HW121925   6.947   7.399   5.554
 3298SOL    HW221926   7.037   7.518   5.619
 3299SOL     OW21927   8.602   1.328   6.771
 3299SOL    HW121928   8.560   1.317   6.861
 3299SOL    HW221929   8.574   1.252   6.712
 3300SOL     OW21930   3.999   7.432   1.242
 3300SOL    HW121931   3.910   7.461   1.277
 3300SOL    HW221932   3.991   7.413   1.144
 3301SOL     OW21933   0.218   6.883   6.389
 3301SOL    HW121934   0.235   6.944   6.466
 3301SOL    HW221935   0.175   6.799   6.422
 3302SOL     OW21936   4.566   7.185   6.843
 3302SOL    HW121937   4.601   7.247   6.913
 3302SOL    HW221938   4.550   7.237   6.758
 3303SOL     OW21939   3.876   0.008   1.228
 3303SOL    HW121940   3.946   0.078   1.240
 3303SOL    HW221941   3.879  -0.027   1.134
 3304SOL     OW21942   5.841   7.709   1.788
 3304SOL    HW121943   5.821   7.792   1.839
 3304SOL    HW221944   5.940   7.703   1.772
 3305SOL     OW21945   5.720   7.626   6.190
 3305SOL    HW121946   5.663   7.657   6.114
 3305SOL    HW221947   5.662   7.602   6.268
 3306SOL     OW21948   7.720   0.320   6.837
 3306SOL    HW121949   7.649   0.284   6.898
 3306SOL    HW221950   7.678   0.353   6.753
 3307SOL     OW21951   6.169   3.986   0.312
 3307SOL    HW121952   6.117   4.006   0.229
 3307SOL    HW221953   6.174   4.068   0.369
 3308SOL     OW21954   6.137   8.346   5.068
 3308SOL    HW121955   6.107   8.305   4.982
 3308SOL    HW221956   6.141   8.446   5.057
 3309SOL     OW21957   3.293   6.589   6.882
 3309SOL    HW121958   3.363   6.518   6.869
 3309SOL    HW221959   3.253   6.580   6.974
 3310SOL     OW21960   7.438   1.802   0.355
 3310SOL    HW121961   7.403   1.827   0.264
 3310SOL    HW221962   7.538   1.792   0.351
 3311SOL     OW21963   0.862   3.008   5.797
 3311SOL    HW121964   0.819   3.009   5.706
 3311SOL    HW221965   0.961   3.017   5.787
 3312SOL     OW21966   4.192   2.793   6.342
 3312SOL    HW121967   4.291   2.784   6.347
 3312SOL    HW221968   4.167   2.838   6.256
 3313SOL     OW21969   5.080   3.989   6.852
 3313SOL    HW121970   5.155   4.053   6.865
 3313SOL    HW221971   4.999   4.038   6.819
 3314SOL     OW21972   2.837   7.871   5.641
 3314SOL    HW121973   2.770   7.892   5.570
 3314SOL    HW221974   2.873   7.779   5.626
 3315SOL     OW21975   8.910   7.713   6.188
 3315SOL    HW121976   8.963   7.788   6.149
 3315SOL    HW221977   8.827   7.749   6.230
 3316SOL     OW21978   6.745   1.946   6.920
 3316SOL    HW121979   6.701   2.030   6.889
 3316SOL    HW221980   6.789   1.901   6.842
 3317SOL     OW21981   2.884   0.630   6.944
 3317SOL    HW121982   2.846   0.694   6.877
 3317SOL    HW221983   2.954   0.677   6.999
 3318SOL     OW21984   8.480   5.835   5.488
 3318SOL    HW121985   8.496   5.750   5.437
 3318SOL    HW221986   8.409   5.888   5.442
 3319SOL     OW21987   6.026   3.213   2.415
 3319SOL    HW121988   6.079   3.167   2.486
 3319SOL    HW221989   5.944   3.160   2.394
 3320SOL     OW21990   8.402   3.928   6.425
 3320SOL    HW121991   8.367   3.980   6.347
 3320SOL    HW221992   8.332   3.924   6.496
 3321SOL     OW21993   9.337   4.260   6.184
 3321SOL    HW121994   9.309   4.272   6.089
 3321SOL    HW221995   9.383   4.172   6.195
 3322SOL     OW21996   6.957   8.286   5.724
 3322SOL    HW121997   7.000   8.198   5.745
 3322SOL    HW221998   6.869   8.292   5.771
 3323SOL     OW21999   3.821   4.857   1.114
 3323SOL    HW122000   3.789   4.833   1.022
 3323SOL    HW222001   3.906   4.806   1.134
 3324SOL     OW22002   6.923   2.610   0.433
 3324SOL    HW122003   6.936   2.684   0.367
 3324SOL    HW222004   6.903   2.525   0.385
 3325SOL     OW22005   2.635   5.961   6.078
 3325SOL    HW122006   2.698   5.971   6.001
 3325SOL    HW222007   2.542   5.986   6.048
 3326SOL     OW22008   6.159   1.499   1.429
 3326SOL    HW122009   6.098   1.543   1.495
 3326SOL    HW222010   6.155   1.548   1.342
 3327SOL     OW22011   5.125   6.616   2.002
 3327SOL    HW122012   5.134   6.592   1.905
 3327SOL    HW222013   5.047   6.567   2.041
 3328SOL     OW22014   3.241   5.612   6.550
 3328SOL    HW122015   3.255   5.599   6.648
 3328SOL    HW222016   3.167   5.551   6.519
 3329SOL     OW22017   0.641   1.734   5.669
 3329SOL    HW122018   0.666   1.816   5.721
 3329SOL    HW222019   0.615   1.760   5.576
 3330SOL     OW22020   1.032   5.553   6.812
 3330SOL    HW122021   1.016   5.616   6.735
 3330SOL    HW222022   0.953   5.555   6.873
 3331SOL     OW22023   0.796   8.346   5.484
 3331SOL    HW122024   0.874   8.390   5.530
 3331SOL    HW222025   0.829   8.295   5.404
 3332SOL     OW22026   9.338   6.354   5.438
 3332SOL    HW122027   9.328   6.330   5.341
 3332SOL    HW222028   9.369   6.449   5.446
 3333SOL     OW22029   3.809   3.686   0.442
 3333SOL    HW122030   3.874   3.690   0.518
 3333SOL    HW222031   3.841   3.745   0.368
 3334SOL     OW22032   4.400   0.117   1.941
 3334SOL    HW122033   4.492   0.084   1.961
 3334SOL    HW222034   4.383   0.201   1.993
 3335SOL     OW22035   3.277   2.310   0.660
 3335SOL    HW122036   3.251   2.405   0.643
 3335SOL    HW222037   3.200   2.251   0.637
 3336SOL     OW22038   9.385   5.049   1.108
 3336SOL    HW122039   9.359   5.140   1.139
 3336SOL    HW222040   9.455   5.012   1.170
 3337SOL     OW22041   7.383   3.254   0.466
 3337SOL    HW122042   7.452   3.195   0.509
 3337SOL    HW222043   7.292   3.215   0.480
 3338SOL     OW22044   1.559   6.343   1.152
 3338SOL    HW122045   1.594   6.309   1.240
 3338SOL    HW222046   1.509   6.270   1.106
 3339SOL     OW22047   8.894   0.300   1.047
 3339SOL    HW122048   8.831   0.297   1.124
 3339SOL    HW222049   8.935   0.210   1.034
 3340SOL     OW22050   4.273   3.993   6.863
 3340SOL    HW122051   4.258   4.075   6.807
 3340SOL    HW222052   4.299   3.917   6.804
 3341SOL     OW22053   3.177   3.390   5.747
 3341SOL    HW122054   3.084   3.354   5.743
 3341SOL    HW222055   3.242   3.318   5.724
 3342SOL     OW22056   5.677   3.360   6.654
 3342SOL    HW122057   5.767   3.316   6.649
 3342SOL    HW222058   5.605   3.291   6.659
 3343SOL     OW22059   4.364   8.261   5.608
 3343SOL    HW122060   4.421   8.327   5.558
 3343SOL    HW222061   4.377   8.170   5.569
 3344SOL     OW22062   0.821   8.001   1.771
 3344SOL    HW122063   0.731   8.001   1.727
 3344SOL    HW222064   0.810   8.009   1.870
 3345SOL     OW22065   7.483   8.398   5.271
 3345SOL    HW122066   7.504   8.321   5.332
 3345SOL    HW222067   7.447   8.363   5.184
 3346SOL     OW22068   1.358   0.249   0.340
 3346SOL    HW122069   1.410   0.190   0.278
 3346SOL    HW222070   1.374   0.220   0.435
 3347SOL     OW22071   2.228   7.099   1.247
 3347SOL    HW122072   2.129   7.101   1.237
 3347SOL    HW222073   2.257   7.007   1.274
 3348SOL     OW22074   4.777   3.199   6.537
 3348SOL    HW122075   4.870   3.227   6.562
 3348SOL    HW222076   4.733   3.272   6.485
 3349SOL     OW22077   4.075   2.662   6.537
 3349SOL    HW122078   3.978   2.638   6.530
 3349SOL    HW222079   4.103   2.714   6.456
 3350SOL     OW22080   3.420   6.783   1.099
 3350SOL    HW122081   3.452   6.845   1.170
 3350SOL    HW222082   3.470   6.800   1.014
 3351SOL     OW22083   5.373   7.945   6.433
 3351SOL    HW122084   5.375   7.995   6.519
 3351SOL    HW222085   5.460   7.897   6.421
 3352SOL     OW22086   2.157   4.505   0.700
 3352SOL    HW122087   2.079   4.502   0.762
 3352SOL    HW222088   2.130   4.470   0.610
 3353SOL     OW22089   7.085   2.353   1.119
 3353SOL    HW122090   7.154   2.373   1.049
 3353SOL    HW222091   7.005   2.312   1.075
 3354SOL     OW22092   6.195   4.303   6.515
 3354SOL    HW122093   6.223   4.257   6.431
 3354SOL    HW222094   6.201   4.402   6.503
 3355SOL     OW22095   4.890   4.424   6.580
 3355SOL    HW122096   4.890   4.350   6.512
 3355SOL    HW222097   4.919   4.509   6.536
 3356SOL     OW22098   0.158   0.243   5.652
 3356SOL    HW122099   0.081   0.194   5.693
 3356SOL    HW222100   0.230   0.256   5.721
 3357SOL     OW22101   3.722   6.612   1.472
 3357SOL    HW122102   3.627   6.641   1.457
 3357SOL    HW222103   3.726   6.546   1.546
 3358SOL     OW22104   1.694   5.210   6.269
 3358SOL    HW122105   1.648   5.154   6.199
 3358SOL    HW222106   1.645   5.201   6.356
 3359SOL     OW22107   4.691   7.320   1.393
 3359SOL    HW122108   4.674   7.234   1.441
 3359SOL    HW222109   4.695   7.395   1.460
 3360SOL     OW22110   6.919   5.486   0.279
 3360SOL    HW122111   6.942   5.583   0.264
 3360SOL    HW222112   7.004   5.432   0.283
 3361SOL     OW22113   0.820   8.269   1.158
 3361SOL    HW122114   0.880   8.212   1.102
 3361SOL    HW222115   0.792   8.349   1.106
 3362SOL     OW22116   4.934   8.278   0.649
 3362SOL    HW122117   5.027   8.251   0.625
 3362SOL    HW222118   4.870   8.239   0.583
 3363SOL     OW22119   2.843   5.387   0.781
 3363SOL    HW122120   2.911   5.402   0.852
 3363SOL    HW222121   2.834   5.289   0.763
 3364SOL     OW22122   6.523   6.840   0.253
 3364SOL    HW122123   6.572   6.892   0.322
 3364SOL    HW222124   6.538   6.881   0.163
 3365SOL     OW22125   8.343   8.233   0.975
 3365SOL    HW122126   8.442   8.246   0.970
 3365SOL    HW222127   8.324   8.139   1.003
 3366SOL     OW22128   7.612   8.408   5.826
 3366SOL    HW122129   7.523   8.398   5.782
 3366SOL    HW222130   7.600   8.442   5.920
 3367SOL     OW22131   0.793   2.983   6.120
 3367SOL    HW122132   0.694   2.976   6.109
 3367SOL    HW222133   0.837   2.983   6.030
 3368SOL     OW22134   3.576   7.986   0.653
 3368SOL    HW122135   3.569   7.918   0.579
 3368SOL    HW222136   3.519   8.065   0.630
 3369SOL     OW22137   8.895   8.200   5.700
 3369SOL    HW122138   8.820   8.202   5.633
 3369SOL    HW222139   8.865   8.153   5.782
 3370SOL     OW22140   2.315   3.506   0.336
 3370SOL    HW122141   2.295   3.408   0.342
 3370SOL    HW222142   2.291   3.539   0.244
 3371SOL     OW22143   5.390   7.626   6.840
 3371SOL    HW122144   5.402   7.623   6.939
 3371SOL    HW222145   5.462   7.682   6.800
 3372SOL     OW22146   5.414  -0.012   2.117
 3372SOL    HW122147   5.435  -0.008   2.214
 3372SOL    HW222148   5.324   0.028   2.100
 3373SOL     OW22149   5.085   1.838   5.483
 3373SOL    HW122150   5.083   1.881   5.573
 3373SOL    HW222151   5.144   1.890   5.422
 3374SOL     OW22152   4.237   0.609   0.799
 3374SOL    HW122153   4.297   0.578   0.725
 3374SOL    HW222154   4.243   0.545   0.876
 3375SOL     OW22155   2.531   4.539   0.546
 3375SOL    HW122156   2.613   4.593   0.531
 3375SOL    HW222157   2.550   4.468   0.614
 3376SOL     OW22158   1.622   0.699   6.290
 3376SOL    HW122159   1.595   0.683   6.195
 3376SOL    HW222160   1.610   0.796   6.312
 3377SOL     OW22161   1.660   2.842   4.870
 3377SOL    HW122162   1.730   2.892   4.818
 3377SOL    HW222163   1.676   2.856   4.968
 3378SOL     OW22164   2.826   4.476   1.304
 3378SOL    HW122165   2.775   4.558   1.329
 3378SOL    HW222166   2.816   4.459   1.206
 3379SOL     OW22167   4.470   7.722   5.583
 3379SOL    HW122168   4.526   7.656   5.632
 3379SOL    HW222169   4.448   7.686   5.492
 3380SOL     OW22170   4.894   1.891   0.978
 3380SOL    HW122171   4.982   1.915   0.938
 3380SOL    HW222172   4.842   1.835   0.913
 3381SOL     OW22173   8.417   7.973   1.351
 3381SOL    HW122174   8.396   7.877   1.331
 3381SOL    HW222175   8.387   7.994   1.444
 3382SOL     OW22176   8.669   6.479   0.614
 3382SOL    HW122177   8.742   6.453   0.676
 3382SOL    HW222178   8.597   6.526   0.666
 3383SOL     OW22179   9.211   2.132   0.301
 3383SOL    HW122180   9.237   2.053   0.357
 3383SOL    HW222181   9.281   2.203   0.309
 3384SOL     OW22182   6.860   4.008   5.359
 3384SOL    HW122183   6.787   4.001   5.290
 3384SOL    HW222184   6.945   3.971   5.320
 3385SOL     OW22185   6.401   7.449   2.039
 3385SOL    HW122186   6.455   7.499   2.106
 3385SOL    HW222187   6.394   7.353   2.067
 3386SOL     OW22188   7.019   6.392   5.820
 3386SOL    HW122189   6.991   6.475   5.772
 3386SOL    HW222190   7.080   6.417   5.896
 3387SOL     OW22191   0.821   0.771   1.416
 3387SOL    HW122192   0.920   0.763   1.409
 3387SOL    HW222193   0.792   0.756   1.511
 3388SOL     OW22194   6.119   6.746   6.151
 3388SOL    HW122195   6.110   6.741   6.051
 3388SOL    HW222196   6.180   6.673   6.182
 3389SOL     OW22197   2.291   5.271   1.419
 3389SOL    HW122198   2.369   5.333   1.409
 3389SOL    HW222199   2.323   5.181   1.448
 3390SOL     OW22200   5.527   5.793   6.526
 3390SOL    HW122201   5.579   5.713   6.557
 3390SOL    HW222202   5.433   5.787   6.558
 3391SOL     OW22203   1.401   2.550   5.829
 3391SOL    HW122204   1.307   2.577   5.851
 3391SOL    HW222205   1.416   2.561   5.731
 3392SOL     OW22206   7.162   7.649   5.610
 3392SOL    HW122207   7.165   7.641   5.510
 3392SOL    HW222208   7.203   7.736   5.637
 3393SOL     OW22209   5.484   6.383   6.485
 3393SOL    HW122210   5.455   6.379   6.389
 3393SOL    HW222211   5.513   6.293   6.515
 3394SOL     OW22212   4.315   0.136   1.026
 3394SOL    HW122213   4.373   0.090   1.094
 3394SOL    HW222214   4.221   0.142   1.061
 3395SOL     OW22215   8.722   0.907   0.294
 3395SOL    HW122216   8.743   1.004   0.303
 3395SOL    HW222217   8.798   0.861   0.247
 3396SOL     OW22218   1.352   7.057   0.395
 3396SOL    HW122219   1.419   7.120   0.434
 3396SOL    HW222220   1.351   6.972   0.447
 3397SOL     OW22221   5.862   2.985   6.504
 3397SOL    HW122222   5.792   2.990   6.433
 3397SOL    HW222223   5.865   2.892   6.542
 3398SOL     OW22224   5.838   5.152   0.560
 3398SOL    HW122225   5.905   5.225   0.571
 3398SOL    HW222226   5.779   5.148   0.641
 3399SOL     OW22227   3.109   0.814   0.859
 3399SOL    HW122228   3.195   0.837   0.814
 3399SOL    HW222229   3.115   0.722   0.897
 3400SOL     OW22230   1.726   1.906   1.153
 3400SOL    HW122231   1.820   1.940   1.148
 3400SOL    HW222232   1.663   1.980   1.132
 3401SOL     OW22233   4.485   5.283   6.333
 3401SOL    HW122234   4.489   5.336   6.418
 3401SOL    HW222235   4.477   5.346   6.255
 3402SOL     OW22236   5.002   1.415   5.235
 3402SOL    HW122237   4.912   1.386   5.266
 3402SOL    HW222238   4.995   1.452   5.142
 3403SOL     OW22239   9.102   0.103   0.417
 3403SOL    HW122240   9.021   0.109   0.358
 3403SOL    HW222241   9.100   0.177   0.484
 3404SOL     OW22242   7.577   3.123   6.387
 3404SOL    HW122243   7.664   3.166   6.360
 3404SOL    HW222244   7.555   3.149   6.481
 3405SOL     OW22245   2.195   1.927   5.912
 3405SOL    HW122246   2.224   2.015   5.950
 3405SOL    HW222247   2.204   1.929   5.812
 3406SOL     OW22248   3.286   3.797   1.578
 3406SOL    HW122249   3.295   3.698   1.588
 3406SOL    HW222250   3.193   3.818   1.545
 3407SOL     OW22251   4.472   1.414   1.538
 3407SOL    HW122252   4.570   1.414   1.555
 3407SOL    HW222253   4.431   1.496   1.578
 3408SOL     OW22254   4.862   7.200   6.328
 3408SOL    HW122255   4.859   7.287   6.378
 3408SOL    HW222256   4.930   7.207   6.254
 3409SOL     OW22257   3.635   4.402   1.801
 3409SOL    HW122258   3.653   4.399   1.900
 3409SOL    HW222259   3.603   4.494   1.776
 3410SOL     OW22260   1.480   0.887   6.896
 3410SOL    HW122261   1.451   0.979   6.868
 3410SOL    HW222262   1.483   0.827   6.816
 3411SOL     OW22263   3.343   6.517   1.620
 3411SOL    HW122264   3.309   6.510   1.714
 3411SOL    HW222265   3.279   6.472   1.558
 3412SOL     OW22266   3.913   1.349   6.092
 3412SOL    HW122267   3.933   1.252   6.079
 3412SOL    HW222268   3.837   1.359   6.156
 3413SOL     OW22269   4.351   0.348   2.394
 3413SOL    HW122270   4.351   0.254   2.429
 3413SOL    HW222271   4.375   0.411   2.468
 3414SOL     OW22272   3.243   5.756   6.310
 3414SOL    HW122273   3.215   5.718   6.398
 3414SOL    HW222274   3.224   5.854   6.307
 3415SOL     OW22275   6.978   4.369   6.802
 3415SOL    HW122276   7.057   4.428   6.787
 3415SOL    HW222277   6.947   4.331   6.715
 3416SOL     OW22278   7.070   4.672   0.984
 3416SOL    HW122279   7.102   4.668   0.890
 3416SOL    HW222280   7.149   4.682   1.045
 3417SOL     OW22281   4.594  -0.002   5.898
 3417SOL    HW122282   4.644   0.008   5.984
 3417SOL    HW222283   4.619   0.074   5.837
 3418SOL     OW22284   2.108   4.545   6.502
 3418SOL    HW122285   2.101   4.456   6.547
 3418SOL    HW222286   2.016   4.576   6.477
 3419SOL     OW22287   4.532   3.224   6.952
 3419SOL    HW122288   4.562   3.151   6.891
 3419SOL    HW222289   4.610   3.281   6.977
 3420SOL     OW22290   6.154   2.301   1.282
 3420SOL    HW122291   6.119   2.305   1.188
 3420SOL    HW222292   6.159   2.205   1.311
 3421SOL     OW22293   4.611   5.954   0.403
 3421SOL    HW122294   4.569   5.982   0.489
 3421SOL    HW222295   4.599   6.027   0.335
 3422SOL     OW22296   2.530   6.144   0.880
 3422SOL    HW122297   2.570   6.095   0.803
 3422SOL    HW222298   2.522   6.083   0.959
 3423SOL     OW22299   6.233   2.480   0.402
 3423SOL    HW122300   6.316   2.441   0.363
 3423SOL    HW222301   6.252   2.572   0.436
 3424SOL     OW22302   3.276   0.774   0.557
 3424SOL    HW122303   3.287   0.682   0.519
 3424SOL    HW222304   3.351   0.792   0.621
 3425SOL     OW22305   4.429   7.383   6.018
 3425SOL    HW122306   4.410   7.398   6.115
 3425SOL    HW222307   4.382   7.452   5.963
 3426SOL     OW22308   7.646   5.798   6.861
 3426SOL    HW122309   7.616   5.789   6.956
 3426SOL    HW222310   7.626   5.889   6.827
 3427SOL     OW22311   3.603   4.707   0.844
 3427SOL    HW122312   3.653   4.629   0.881
 3427SOL    HW222313   3.668   4.773   0.805
 3428SOL     OW22314   3.885   6.626   5.382
 3428SOL    HW122315   3.904   6.554   5.316
 3428SOL    HW222316   3.963   6.638   5.443
 3429SOL     OW22317   1.929   2.143   0.585
 3429SOL    HW122318   2.026   2.155   0.610
 3429SOL    HW222319   1.876   2.219   0.622
 3430SOL     OW22320   2.521   6.584   5.158
 3430SOL    HW122321   2.507   6.505   5.100
 3430SOL    HW222322   2.575   6.652   5.109
 3431SOL     OW22323   7.978   1.290   6.784
 3431SOL    HW122324   7.946   1.253   6.697
 3431SOL    HW222325   8.006   1.215   6.844
 3432SOL     OW22326   4.933   5.785   1.689
 3432SOL    HW122327   4.951   5.866   1.744
 3432SOL    HW222328   4.856   5.734   1.728
 3433SOL     OW22329   5.716   4.037   1.320
 3433SOL    HW122330   5.762   4.017   1.407
 3433SOL    HW222331   5.659   4.119   1.331
 3434SOL     OW22332   2.473   1.844   1.839
 3434SOL    HW122333   2.470   1.855   1.938
 3434SOL    HW222334   2.384   1.867   1.801
 3435SOL     OW22335   4.753   1.657   1.175
 3435SOL    HW122336   4.707   1.569   1.184
 3435SOL    HW222337   4.699   1.718   1.117
 3436SOL     OW22338   5.082   5.237   2.229
 3436SOL    HW122339   5.137   5.215   2.309
 3436SOL    HW222340   5.045   5.153   2.189
 3437SOL     OW22341   0.526   5.604   0.367
 3437SOL    HW122342   0.494   5.618   0.273
 3437SOL    HW222343   0.462   5.544   0.415
 3438SOL     OW22344   3.001   5.708   5.906
 3438SOL    HW122345   2.990   5.627   5.849
 3438SOL    HW222346   3.017   5.681   6.001
 3439SOL     OW22347   3.902   2.442   6.817
 3439SOL    HW122348   3.828   2.391   6.773
 3439SOL    HW222349   3.865   2.493   6.894
 3440SOL     OW22350   4.414   4.971   0.834
 3440SOL    HW122351   4.498   5.005   0.876
 3440SOL    HW222352   4.419   4.871   0.826
 3441SOL     OW22353   1.330   6.767   5.581
 3441SOL    HW122354   1.393   6.745   5.506
 3441SOL    HW222355   1.271   6.843   5.553
 3442SOL     OW22356   5.621   7.949   1.426
 3442SOL    HW122357   5.537   8.005   1.427
 3442SOL    HW222358   5.598   7.855   1.452
 3443SOL     OW22359   0.791   7.039   6.674
 3443SOL    HW122360   0.762   6.944   6.658
 3443SOL    HW222361   0.719   7.088   6.724
 3444SOL     OW22362   1.657   0.551   1.644
 3444SOL    HW122363   1.735   0.533   1.703
 3444SOL    HW222364   1.573   0.551   1.698
 3445SOL     OW22365   7.469   3.989   6.261
 3445SOL    HW122366   7.533   4.066   6.262
 3445SOL    HW222367   7.483   3.935   6.179
 3446SOL     OW22368   5.702   1.271   6.801
 3446SOL    HW122369   5.606   1.277   6.827
 3446SOL    HW222370   5.710   1.265   6.701
 3447SOL     OW22371   5.875   3.188   6.698
 3447SOL    HW122372   5.867   3.119   6.627
 3447SOL    HW222373   5.917   3.149   6.779
 3448SOL     OW22374   8.927   7.035   0.556
 3448SOL    HW122375   8.943   6.956   0.615
 3448SOL    HW222376   8.839   7.025   0.510
 3449SOL     OW22377   4.401   1.583   0.864
 3449SOL    HW122378   4.311   1.568   0.905
 3449SOL    HW222379   4.461   1.506   0.887
 3450SOL     OW22380   6.832   1.913   0.443
 3450SOL    HW122381   6.842   1.816   0.465
 3450SOL    HW222382   6.825   1.924   0.344
 3451SOL     OW22383   7.561   1.350   6.188
 3451SOL    HW122384   7.490   1.284   6.165
 3451SOL    HW222385   7.583   1.344   6.285
 3452SOL     OW22386   9.442   2.726   6.919
 3452SOL    HW122387   9.470   2.685   7.006
 3452SOL    HW222388   9.400   2.657   6.861
 3453SOL     OW22389   8.043   2.552   6.947
 3453SOL    HW122390   8.079   2.598   6.866
 3453SOL    HW222391   8.026   2.620   7.019
 3454SOL     OW22392   0.764   6.802   2.138
 3454SOL    HW122393   0.761   6.799   2.238
 3454SOL    HW222394   0.854   6.770   2.107
 3455SOL     OW22395   5.532   0.169   6.325
 3455SOL    HW122396   5.597   0.173   6.250
 3455SOL    HW222397   5.472   0.090   6.314
 3456SOL     OW22398   3.896   1.640   6.154
 3456SOL    HW122399   3.906   1.566   6.087
 3456SOL    HW222400   3.977   1.644   6.212
 3457SOL     OW22401   0.671   0.137   5.260
 3457SOL    HW122402   0.692   0.060   5.200
 3457SOL    HW222403   0.705   0.221   5.219
 3458SOL     OW22404   5.991   6.976   6.243
 3458SOL    HW122405   6.058   7.018   6.305
 3458SOL    HW222406   6.029   6.894   6.202
 3459SOL     OW22407   5.437   6.571   0.301
 3459SOL    HW122408   5.353   6.624   0.313
 3459SOL    HW222409   5.508   6.604   0.363
 3460SOL     OW22410   5.357   5.813   1.178
 3460SOL    HW122411   5.308   5.863   1.249
 3460SOL    HW222412   5.345   5.858   1.090
 3461SOL     OW22413   4.395   6.734   2.081
 3461SOL    HW122414   4.383   6.818   2.134
 3461SOL    HW222415   4.347   6.742   1.993
 3462SOL     OW22416   2.070   7.813   5.881
 3462SOL    HW122417   2.125   7.734   5.909
 3462SOL    HW222418   2.122   7.897   5.898
 3463SOL     OW22419   2.028   4.143   6.465
 3463SOL    HW122420   2.017   4.119   6.561
 3463SOL    HW222421   1.941   4.131   6.417
 3464SOL     OW22422   4.450   6.160   6.779
 3464SOL    HW122423   4.531   6.189   6.829
 3464SOL    HW222424   4.463   6.066   6.747
 3465SOL     OW22425   0.289   4.699   6.023
 3465SOL    HW122426   0.282   4.789   6.066
 3465SOL    HW222427   0.266   4.706   5.926
 3466SOL     OW22428   6.081   8.111   1.039
 3466SOL    HW122429   6.138   8.136   1.117
 3466SOL    HW222430   6.131   8.048   0.980
 3467SOL     OW22431   3.775   5.663   0.943
 3467SOL    HW122432   3.729   5.742   0.902
 3467SOL    HW222433   3.858   5.642   0.893
 3468SOL     OW22434   6.082   7.663   1.671
 3468SOL    HW122435   6.169   7.701   1.638
 3468SOL    HW222436   6.100   7.604   1.749
 3469SOL     OW22437   1.301   4.224   1.100
 3469SOL    HW122438   1.320   4.231   1.198
 3469SOL    HW222439   1.360   4.287   1.050
 3470SOL     OW22440   1.659   1.679   1.279
 3470SOL    HW122441   1.709   1.759   1.244
 3470SOL    HW222442   1.638   1.617   1.204
 3471SOL     OW22443   1.211   1.685   6.286
 3471SOL    HW122444   1.200   1.784   6.279
 3471SOL    HW222445   1.126   1.640   6.260
 3472SOL     OW22446   2.891   1.191   2.640
 3472SOL    HW122447   2.869   1.128   2.565
 3472SOL    HW222448   2.866   1.148   2.727
 3473SOL     OW22449   3.898   3.309   1.592
 3473SOL    HW122450   3.876   3.257   1.509
 3473SOL    HW222451   3.824   3.298   1.659
 3474SOL     OW22452   1.338   5.675   6.639
 3474SOL    HW122453   1.384   5.696   6.553
 3474SOL    HW222454   1.400   5.624   6.699
 3475SOL     OW22455   8.728   6.437   4.701
 3475SOL    HW122456   8.821   6.403   4.714
 3475SOL    HW222457   8.664   6.379   4.751
 3476SOL     OW22458   9.260   7.338   5.344
 3476SOL    HW122459   9.289   7.362   5.252
 3476SOL    HW222460   9.160   7.336   5.348
 3477SOL     OW22461   8.425   3.416   0.804
 3477SOL    HW122462   8.346   3.461   0.846
 3477SOL    HW222463   8.444   3.330   0.852
 3478SOL     OW22464   9.382   5.156   0.678
 3478SOL    HW122465   9.403   5.069   0.632
 3478SOL    HW222466   9.283   5.169   0.680
 3479SOL     OW22467   3.423   6.918   0.517
 3479SOL    HW122468   3.492   6.985   0.543
 3479SOL    HW222469   3.385   6.942   0.428
 3480SOL     OW22470   4.531   1.075   1.748
 3480SOL    HW122471   4.528   1.040   1.842
 3480SOL    HW222472   4.582   1.161   1.747
 3481SOL     OW22473   4.000   8.324   6.646
 3481SOL    HW122474   4.073   8.332   6.714
 3481SOL    HW222475   3.992   8.228   6.617
 3482SOL     OW22476   4.974   0.508   6.823
 3482SOL    HW122477   4.965   0.413   6.795
 3482SOL    HW222478   4.911   0.526   6.899
 3483SOL     OW22479   7.301   8.338   6.210
 3483SOL    HW122480   7.249   8.319   6.127
 3483SOL    HW222481   7.330   8.252   6.252
 3484SOL     OW22482   6.710   4.233   1.722
 3484SOL    HW122483   6.651   4.191   1.790
 3484SOL    HW222484   6.691   4.332   1.718
 3485SOL     OW22485   1.723   1.873   6.539
 3485SOL    HW122486   1.801   1.844   6.594
 3485SOL    HW222487   1.754   1.937   6.468
 3486SOL     OW22488   6.733   2.106   0.614
 3486SOL    HW122489   6.803   2.052   0.568
 3486SOL    HW222490   6.724   2.073   0.709
 3487SOL     OW22491   7.720   6.457   0.725
 3487SOL    HW122492   7.782   6.522   0.769
 3487SOL    HW222493   7.673   6.403   0.795
 3488SOL     OW22494   4.451   1.403   0.262
 3488SOL    HW122495   4.488   1.452   0.341
 3488SOL    HW222496   4.518   1.336   0.231
 3489SOL     OW22497   2.969   6.476   5.878
 3489SOL    HW122498   2.887   6.420   5.891
 3489SOL    HW222499   2.956   6.565   5.921
 3490SOL     OW22500   6.731   3.973   5.615
 3490SOL    HW122501   6.783   3.994   5.532
 3490SOL    HW222502   6.669   4.048   5.636
 3491SOL     OW22503   7.156   3.012   6.408
 3491SOL    HW122504   7.188   3.096   6.453
 3491SOL    HW222505   7.231   2.946   6.403
 3492SOL     OW22506   6.161   7.731   5.510
 3492SOL    HW122507   6.227   7.805   5.521
 3492SOL    HW222508   6.110   7.745   5.425
 3493SOL     OW22509   6.428   3.304   6.255
 3493SOL    HW122510   6.477   3.242   6.193
 3493SOL    HW222511   6.475   3.392   6.259
 3494SOL     OW22512   5.103   0.305   4.861
 3494SOL    HW122513   5.075   0.218   4.903
 3494SOL    HW222514   5.154   0.287   4.777
 3495SOL     OW22515   1.336   4.473   0.391
 3495SOL    HW122516   1.299   4.471   0.298
 3495SOL    HW222517   1.435   4.460   0.387
 3496SOL     OW22518   9.139   4.989   6.739
 3496SOL    HW122519   9.088   5.041   6.807
 3496SOL    HW222520   9.224   5.038   6.717
 3497SOL     OW22521   6.265   4.171   6.286
 3497SOL    HW122522   6.349   4.225   6.280
 3497SOL    HW222523   6.253   4.119   6.201
 3498SOL     OW22524   8.062   3.735   1.861
 3498SOL    HW122525   8.040   3.698   1.951
 3498SOL    HW222526   7.981   3.729   1.802
 3499SOL     OW22527   3.922   8.309   6.160
 3499SOL    HW122528   3.957   8.391   6.114
 3499SOL    HW222529   3.929   8.231   6.097
 3500SOL     OW22530   0.653   5.959   5.812
 3500SOL    HW122531   0.612   6.019   5.743
 3500SOL    HW222532   0.586   5.940   5.884
 3501SOL     OW22533   1.316   2.602   6.301
 3501SOL    HW122534   1.320   2.680   6.364
 3501SOL    HW222535   1.254   2.623   6.226
 3502SOL     OW22536   7.747   0.347   5.286
 3502SOL    HW122537   7.754   0.411   5.209
 3502SOL    HW222538   7.738   0.399   5.371
 3503SOL     OW22539   8.241   1.420   0.558
 3503SOL    HW122540   8.303   1.483   0.512
 3503SOL    HW222541   8.172   1.387   0.494
 3504SOL     OW22542   8.117   4.460   1.320
 3504SOL    HW122543   8.172   4.413   1.251
 3504SOL    HW222544   8.079   4.393   1.384
 3505SOL     OW22545   1.126   7.319   4.476
 3505SOL    HW122546   1.194   7.322   4.549
 3505SOL    HW222547   1.149   7.389   4.408
 3506SOL     OW22548   4.874   5.492   5.405
 3506SOL    HW122549   4.926   5.428   5.461
 3506SOL    HW222550   4.924   5.510   5.320
 3507SOL     OW22551   6.487   6.638   1.292
 3507SOL    HW122552   6.441   6.654   1.204
 3507SOL    HW222553   6.542   6.717   1.316
 3508SOL     OW22554   1.683   2.068   0.796
 3508SOL    HW122555   1.724   2.105   0.713
 3508SOL    HW222556   1.589   2.039   0.776
 3509SOL     OW22557   6.196   4.065   6.044
 3509SOL    HW122558   6.273   4.032   5.990
 3509SOL    HW222559   6.113   4.017   6.015
 3510SOL     OW22560   2.049   5.024   0.490
 3510SOL    HW122561   2.077   4.934   0.454
 3510SOL    HW222562   2.114   5.052   0.561
 3511SOL     OW22563   6.395   0.332   6.949
 3511SOL    HW122564   6.423   0.310   7.043
 3511SOL    HW222565   6.300   0.303   6.935
 3512SOL     OW22566   7.130   7.582   5.880
 3512SOL    HW122567   7.138   7.627   5.791
 3512SOL    HW222568   7.034   7.556   5.895
 3513SOL     OW22569   2.389   6.742   0.356
 3513SOL    HW122570   2.322   6.756   0.429
 3513SOL    HW222571   2.345   6.752   0.267
 3514SOL     OW22572   8.454   8.321   1.234
 3514SOL    HW122573   8.413   8.274   1.155
 3514SOL    HW222574   8.395   8.309   1.314
 3515SOL     OW22575   8.900   0.945   5.310
 3515SOL    HW122576   8.942   0.951   5.220
 3515SOL    HW222577   8.800   0.949   5.300
 3516SOL     OW22578   9.575   8.368   5.507
 3516SOL    HW122579   9.515   8.336   5.434
 3516SOL    HW222580   9.528   8.438   5.561
 3517SOL     OW22581   8.514   2.731   0.257
 3517SOL    HW122582   8.548   2.638   0.243
 3517SOL    HW222583   8.572   2.778   0.323
 3518SOL     OW22584   4.529   6.686   1.313
 3518SOL    HW122585   4.623   6.687   1.346
 3518SOL    HW222586   4.488   6.596   1.329
 3519SOL     OW22587   4.791   7.207   5.254
 3519SOL    HW122588   4.861   7.172   5.316
 3519SOL    HW222589   4.820   7.294   5.216
 3520SOL     OW22590   8.525   7.664   1.070
 3520SOL    HW122591   8.456   7.708   1.128
 3520SOL    HW222592   8.489   7.652   0.978
 3521SOL     OW22593   2.836   7.728   6.224
 3521SOL    HW122594   2.822   7.762   6.318
 3521SOL    HW222595   2.869   7.633   6.228
 3522SOL     OW22596   6.915   7.601   0.403
 3522SOL    HW122597   6.879   7.509   0.420
 3522SOL    HW222598   6.864   7.668   0.458
 3523SOL     OW22599   5.790   2.481   6.720
 3523SOL    HW122600   5.861   2.543   6.755
 3523SOL    HW222601   5.833   2.402   6.676
 3524SOL     OW22602   6.641   4.482   1.740
 3524SOL    HW122603   6.697   4.532   1.806
 3524SOL    HW222604   6.545   4.502   1.757
 3525SOL     OW22605   7.850   6.613   6.484
 3525SOL    HW122606   7.781   6.673   6.443
 3525SOL    HW222607   7.929   6.606   6.422
 3526SOL     OW22608   6.641   4.257   1.228
 3526SOL    HW122609   6.564   4.290   1.282
 3526SOL    HW222610   6.621   4.270   1.130
 3527SOL     OW22611   7.012   1.840   0.823
 3527SOL    HW122612   6.937   1.774   0.832
 3527SOL    HW222613   7.049   1.835   0.730
 3528SOL     OW22614   8.275   6.250   1.212
 3528SOL    HW122615   8.370   6.253   1.243
 3528SOL    HW222616   8.233   6.165   1.242
 3529SOL     OW22617   9.137   2.278   6.807
 3529SOL    HW122618   9.148   2.232   6.895
 3529SOL    HW222619   9.100   2.370   6.822
 3530SOL     OW22620   5.948   8.379   1.668
 3530SOL    HW122621   6.005   8.305   1.633
 3530SOL    HW222622   5.969   8.393   1.765
 3531SOL     OW22623   7.401   6.007   6.863
 3531SOL    HW122624   7.380   6.065   6.942
 3531SOL    HW222625   7.417   6.065   6.783
 3532SOL     OW22626   7.029   1.226   1.493
 3532SOL    HW122627   7.087   1.195   1.568
 3532SOL    HW222628   6.993   1.317   1.514
 3533SOL     OW22629   6.914   0.068   1.229
 3533SOL    HW122630   7.011   0.085   1.248
 3533SOL    HW222631   6.898  -0.030   1.218
 3534SOL     OW22632   4.783   4.315   5.994
 3534SOL    HW122633   4.717   4.390   5.988
 3534SOL    HW222634   4.744   4.240   6.047
 3535SOL     OW22635   3.321   7.904   1.074
 3535SOL    HW122636   3.241   7.852   1.106
 3535SOL    HW222637   3.290   7.984   1.023
 3536SOL     OW22638   2.202   5.873   6.011
 3536SOL    HW122639   2.115   5.917   6.036
 3536SOL    HW222640   2.220   5.798   6.074
 3537SOL     OW22641   4.767   0.480   0.264
 3537SOL    HW122642   4.796   0.422   0.340
 3537SOL    HW222643   4.718   0.560   0.299
 3538SOL     OW22644   1.522   4.289   1.523
 3538SOL    HW122645   1.545   4.384   1.544
 3538SOL    HW222646   1.602   4.231   1.541
 3539SOL     OW22647   6.818   5.522   6.670
 3539SOL    HW122648   6.736   5.572   6.639
 3539SOL    HW222649   6.894   5.586   6.680
 3540SOL     OW22650   3.668   0.498   1.301
 3540SOL    HW122651   3.585   0.524   1.252
 3540SOL    HW222652   3.737   0.468   1.235
 3541SOL     OW22653   1.535   6.936   6.099
 3541SOL    HW122654   1.484   6.885   6.030
 3541SOL    HW222655   1.480   6.943   6.182
 3542SOL     OW22656   4.724   0.081   6.909
 3542SOL    HW122657   4.652   0.150   6.919
 3542SOL    HW222658   4.685  -0.004   6.875
 3543SOL     OW22659   4.562   0.329   6.888
 3543SOL    HW122660   4.633   0.393   6.918
 3543SOL    HW222661   4.577   0.306   6.791
 3544SOL     OW22662   6.231   8.263   5.321
 3544SOL    HW122663   6.239   8.166   5.296
 3544SOL    HW222664   6.196   8.314   5.242
 3545SOL     OW22665   8.686  -0.001   5.910
 3545SOL    HW122666   8.622   0.067   5.945
 3545SOL    HW222667   8.757  -0.018   5.978
 3546SOL     OW22668   2.502   2.690   6.041
 3546SOL    HW122669   2.527   2.770   5.987
 3546SOL    HW222670   2.466   2.720   6.130
 3547SOL     OW22671   4.493   6.229   1.968
 3547SOL    HW122672   4.504   6.132   1.948
 3547SOL    HW222673   4.466   6.241   2.064
 3548SOL     OW22674   6.282   0.595   1.437
 3548SOL    HW122675   6.378   0.581   1.413
 3548SOL    HW222676   6.276   0.618   1.534
 3549SOL     OW22677   8.929   7.659   6.510
 3549SOL    HW122678   8.849   7.684   6.455
 3549SOL    HW222679   8.907   7.579   6.566
 3550SOL     OW22680   5.120   3.199   6.010
 3550SOL    HW122681   5.050   3.222   5.942
 3550SOL    HW222682   5.183   3.275   6.021
 3551SOL     OW22683   2.567   4.324   6.538
 3551SOL    HW122684   2.486   4.330   6.480
 3551SOL    HW222685   2.636   4.390   6.507
 3552SOL     OW22686   0.831   3.294   6.745
 3552SOL    HW122687   0.861   3.304   6.840
 3552SOL    HW222688   0.734   3.273   6.742
 3553SOL     OW22689   0.496   2.498   1.001
 3553SOL    HW122690   0.591   2.468   1.002
 3553SOL    HW222691   0.492   2.598   0.994
 3554SOL     OW22692   9.231   0.876   5.872
 3554SOL    HW122693   9.257   0.861   5.967
 3554SOL    HW222694   9.185   0.794   5.837
 3555SOL     OW22695   7.306   6.379   1.305
 3555SOL    HW122696   7.317   6.445   1.230
 3555SOL    HW222697   7.213   6.385   1.340
 3556SOL     OW22698   3.286   5.610   0.461
 3556SOL    HW122699   3.306   5.707   0.472
 3556SOL    HW222700   3.238   5.596   0.374
 3557SOL     OW22701   6.208   6.913   6.648
 3557SOL    HW122702   6.146   6.839   6.620
 3557SOL    HW222703   6.223   6.908   6.746
 3558SOL     OW22704   0.801   3.550   0.960
 3558SOL    HW122705   0.775   3.520   1.052
 3558SOL    HW222706   0.835   3.472   0.908
 3559SOL     OW22707   1.998   7.232   0.881
 3559SOL    HW122708   1.913   7.180   0.872
 3559SOL    HW222709   1.980   7.318   0.928
 3560SOL     OW22710   2.438   0.264   5.545
 3560SOL    HW122711   2.382   0.251   5.463
 3560SOL    HW222712   2.524   0.308   5.519
 3561SOL     OW22713   2.086   7.935   6.243
 3561SOL    HW122714   2.160   7.991   6.278
 3561SOL    HW222715   1.998   7.979   6.264
 3562SOL     OW22716   8.412   3.411   0.274
 3562SOL    HW122717   8.411   3.479   0.201
 3562SOL    HW222718   8.406   3.320   0.234
 3563SOL     OW22719   6.110   3.128   6.855
 3563SOL    HW122720   6.116   3.074   6.771
 3563SOL    HW222721   6.196   3.177   6.870
 3564SOL     OW22722   1.571   2.691   6.052
 3564SOL    HW122723   1.593   2.789   6.056
 3564SOL    HW222724   1.499   2.676   5.984
 3565SOL     OW22725   4.109   2.349   1.226
 3565SOL    HW122726   4.011   2.370   1.226
 3565SOL    HW222727   4.148   2.372   1.316
 3566SOL     OW22728   2.138   1.360   1.928
 3566SOL    HW122729   2.196   1.402   1.858
 3566SOL    HW222730   2.123   1.425   2.003
 3567SOL     OW22731   6.116   0.004   6.698
 3567SOL    HW122732   6.214   0.011   6.677
 3567SOL    HW222733   6.075   0.095   6.694
 3568SOL     OW22734   5.678   6.205   5.714
 3568SOL    HW122735   5.769   6.235   5.686
 3568SOL    HW222736   5.651   6.127   5.658
 3569SOL     OW22737   4.950   0.897   6.890
 3569SOL    HW122738   4.978   0.898   6.794
 3569SOL    HW222739   5.005   0.830   6.940
 3570SOL     OW22740   6.782   6.227   5.896
 3570SOL    HW122741   6.708   6.221   5.828
 3570SOL    HW222742   6.845   6.300   5.869
 3571SOL     OW22743   1.190   0.358   5.153
 3571SOL    HW122744   1.116   0.392   5.095
 3571SOL    HW222745   1.266   0.328   5.096
 3572SOL     OW22746   9.421   0.795   5.653
 3572SOL    HW122747   9.361   0.843   5.717
 3572SOL    HW222748   9.516   0.809   5.680
 3573SOL     OW22749   2.591   0.322   0.458
 3573SOL    HW122750   2.599   0.421   0.446
 3573SOL    HW222751   2.536   0.303   0.540
 3574SOL     OW22752   2.205   4.284   6.636
 3574SOL    HW122753   2.253   4.302   6.550
 3574SOL    HW222754   2.114   4.248   6.615
 3575SOL     OW22755   8.032   6.398   0.345
 3575SOL    HW122756   8.106   6.458   0.313
 3575SOL    HW222757   8.060   6.303   0.333
 3576SOL     OW22758   3.356   6.474   1.295
 3576SOL    HW122759   3.271   6.467   1.348
 3576SOL    HW222760   3.429   6.425   1.342
 3577SOL     OW22761   2.081   3.418   1.536
 3577SOL    HW122762   2.101   3.380   1.627
 3577SOL    HW222763   2.016   3.359   1.489
 3578SOL     OW22764   2.935   3.814   5.447
 3578SOL    HW122765   2.895   3.726   5.422
 3578SOL    HW222766   3.015   3.798   5.505
 3579SOL     OW22767   8.136   6.809   1.265
 3579SOL    HW122768   8.152   6.724   1.215
 3579SOL    HW222769   8.156   6.886   1.204
 3580SOL     OW22770   3.007   1.168   1.742
 3580SOL    HW122771   3.044   1.184   1.651
 3580SOL    HW222772   3.063   1.100   1.790
 3581SOL     OW22773   1.430   2.104   5.872
 3581SOL    HW122774   1.473   2.175   5.816
 3581SOL    HW222775   1.476   2.101   5.961
 3582SOL     OW22776   1.282   3.929   6.830
 3582SOL    HW122777   1.351   3.898   6.764
 3582SOL    HW222778   1.209   3.977   6.781
 3583SOL     OW22779   0.426   0.653   1.365
 3583SOL    HW122780   0.427   0.733   1.425
 3583SOL    HW222781   0.352   0.592   1.393
 3584SOL     OW22782   6.497   4.930   0.728
 3584SOL    HW122783   6.459   5.019   0.704
 3584SOL    HW222784   6.425   4.860   0.724
 3585SOL     OW22785   9.361   6.092   6.069
 3585SOL    HW122786   9.311   6.069   6.152
 3585SOL    HW222787   9.337   6.184   6.040
 3586SOL     OW22788   7.335   5.714   1.668
 3586SOL    HW122789   7.282   5.640   1.709
 3586SOL    HW222790   7.313   5.721   1.570
 3587SOL     OW22791   8.562   8.314   5.505
 3587SOL    HW122792   8.637   8.249   5.489
 3587SOL    HW222793   8.577   8.396   5.451
 3588SOL     OW22794   2.917   2.105   6.767
 3588SOL    HW122795   2.859   2.163   6.823
 3588SOL    HW222796   2.891   2.009   6.781
 3589SOL     OW22797   0.581   8.001   0.431
 3589SOL    HW122798   0.504   7.942   0.457
 3589SOL    HW222799   0.574   8.024   0.334
 3590SOL     OW22800   3.462   6.118   0.786
 3590SOL    HW122801   3.542   6.136   0.729
 3590SOL    HW222802   3.386   6.088   0.729
 3591SOL     OW22803   3.906   0.931   0.964
 3591SOL    HW122804   3.844   0.860   0.998
 3591SOL    HW222805   3.991   0.889   0.934
 3592SOL     OW22806   8.945   0.042   6.645
 3592SOL    HW122807   8.885  -0.033   6.672
 3592SOL    HW222808   8.934   0.060   6.548
 3593SOL     OW22809   6.549   4.760   5.989
 3593SOL    HW122810   6.571   4.857   5.983
 3593SOL    HW222811   6.597   4.710   5.917
 3594SOL     OW22812   1.480   2.299   0.867
 3594SOL    HW122813   1.541   2.333   0.939
 3594SOL    HW222814   1.473   2.199   0.873
 3595SOL     OW22815   5.908   3.952   0.468
 3595SOL    HW122816   5.848   3.907   0.402
 3595SOL    HW222817   5.972   4.011   0.419
 3596SOL     OW22818   9.482   1.478   5.898
 3596SOL    HW122819   9.531   1.474   5.811
 3596SOL    HW222820   9.463   1.385   5.929
 3597SOL     OW22821   0.505   3.843   0.251
 3597SOL    HW122822   0.567   3.795   0.189
 3597SOL    HW222823   0.506   3.798   0.340
 3598SOL     OW22824   2.372   2.759   6.283
 3598SOL    HW122825   2.391   2.842   6.336
 3598SOL    HW222826   2.383   2.679   6.341
 3599SOL     OW22827   4.669   5.759   1.180
 3599SOL    HW122828   4.621   5.847   1.170
 3599SOL    HW222829   4.671   5.734   1.277
 3600SOL     OW22830   3.150   0.363   2.117
 3600SOL    HW122831   3.145   0.425   2.195
 3600SOL    HW222832   3.071   0.377   2.058
 3601SOL     OW22833   5.805   1.292   6.204
 3601SOL    HW122834   5.800   1.219   6.272
 3601SOL    HW222835   5.850   1.259   6.121
 3602SOL     OW22836   7.822   0.905   0.955
 3602SOL    HW122837   7.847   0.857   1.039
 3602SOL    HW222838   7.731   0.946   0.966
 3603SOL     OW22839   5.243  -0.057   0.271
 3603SOL    HW122840   5.339  -0.075   0.294
 3603SOL    HW222841   5.233  -0.054   0.171
 3604SOL     OW22842   5.962   8.375   6.186
 3604SOL    HW122843   6.029   8.437   6.227
 3604SOL    HW222844   5.883   8.367   6.246
 3605SOL     OW22845   6.932   3.518   1.600
 3605SOL    HW122846   6.976   3.449   1.658
 3605SOL    HW222847   6.964   3.609   1.628
 3606SOL     OW22848   5.056   8.291   2.235
 3606SOL    HW122849   4.983   8.293   2.303
 3606SOL    HW222850   5.132   8.234   2.268
 3607SOL     OW22851   8.076   7.677   5.969
 3607SOL    HW122852   8.111   7.621   5.894
 3607SOL    HW222853   8.149   7.694   6.035
 3608SOL     OW22854   1.731   6.317   5.762
 3608SOL    HW122855   1.688   6.408   5.765
 3608SOL    HW222856   1.662   6.248   5.741
 3609SOL     OW22857   6.887   2.926   5.859
 3609SOL    HW122858   6.907   2.865   5.782
 3609SOL    HW222859   6.895   3.021   5.830
 3610SOL     OW22860   1.418   6.846   5.818
 3610SOL    HW122861   1.421   6.945   5.801
 3610SOL    HW222862   1.388   6.799   5.735
 3611SOL     OW22863   4.902   0.293   5.230
 3611SOL    HW122864   4.973   0.225   5.212
 3611SOL    HW222865   4.893   0.354   5.151
 3612SOL     OW22866   6.644   1.061   1.704
 3612SOL    HW122867   6.579   1.001   1.657
 3612SOL    HW222868   6.714   1.091   1.639
 3613SOL     OW22869   0.765   4.152   5.410
 3613SOL    HW122870   0.741   4.059   5.381
 3613SOL    HW222871   0.824   4.195   5.341
 3614SOL     OW22872   7.211   6.737   5.955
 3614SOL    HW122873   7.279   6.805   5.983
 3614SOL    HW222874   7.168   6.766   5.870
 3615SOL     OW22875   3.679   1.433   1.723
 3615SOL    HW122876   3.681   1.415   1.822
 3615SOL    HW222877   3.719   1.523   1.706
 3616SOL     OW22878   8.199   6.587   0.262
 3616SOL    HW122879   8.262   6.587   0.184
 3616SOL    HW222880   8.120   6.644   0.242
 3617SOL     OW22881   2.063   1.950   6.265
 3617SOL    HW122882   1.993   1.882   6.288
 3617SOL    HW222883   2.093   1.997   6.348
 3618SOL     OW22884   3.952   6.710   6.811
 3618SOL    HW122885   3.856   6.704   6.836
 3618SOL    HW222886   4.004   6.640   6.860
 3619SOL     OW22887   6.564   5.178   1.066
 3619SOL    HW122888   6.525   5.264   1.033
 3619SOL    HW222889   6.541   5.166   1.162
 3620SOL     OW22890   3.840   3.185   6.509
 3620SOL    HW122891   3.923   3.136   6.531
 3620SOL    HW222892   3.819   3.174   6.412
 3621SOL     OW22893   3.799   7.574   5.432
 3621SOL    HW122894   3.714   7.523   5.419
 3621SOL    HW222895   3.876   7.521   5.397
 3622SOL     OW22896   3.584   5.817   5.650
 3622SOL    HW122897   3.654   5.888   5.656
 3622SOL    HW222898   3.529   5.831   5.567
 3623SOL     OW22899   8.247   1.301   6.220
 3623SOL    HW122900   8.343   1.296   6.245
 3623SOL    HW222901   8.205   1.210   6.230
 3624SOL     OW22902   2.393   7.889   6.880
 3624SOL    HW122903   2.327   7.912   6.808
 3624SOL    HW222904   2.401   7.966   6.943
 3625SOL     OW22905   3.105   8.114   1.807
 3625SOL    HW122906   3.151   8.136   1.893
 3625SOL    HW222907   3.057   8.195   1.773
 3626SOL     OW22908   2.880   8.430   1.379
 3626SOL    HW122909   2.848   8.524   1.369
 3626SOL    HW222910   2.928   8.421   1.467
 3627SOL     OW22911   3.221   3.844   6.734
 3627SOL    HW122912   3.162   3.921   6.758
 3627SOL    HW222913   3.209   3.822   6.637
 3628SOL     OW22914   2.011   3.639   6.949
 3628SOL    HW122915   1.938   3.614   6.886
 3628SOL    HW222916   1.976   3.702   7.018
 3629SOL     OW22917   6.475   0.444   6.725
 3629SOL    HW122918   6.454   0.393   6.809
 3629SOL    HW222919   6.508   0.380   6.655
 3630SOL     OW22920   5.580   5.026   6.127
 3630SOL    HW122921   5.565   5.052   6.032
 3630SOL    HW222922   5.638   4.945   6.131
 3631SOL     OW22923   1.267   4.398   6.872
 3631SOL    HW122924   1.170   4.423   6.872
 3631SOL    HW222925   1.276   4.299   6.881
 3632SOL     OW22926   6.003   5.801   6.125
 3632SOL    HW122927   5.955   5.780   6.210
 3632SOL    HW222928   6.102   5.788   6.138
 3633SOL     OW22929   8.790   1.374   0.394
 3633SOL    HW122930   8.862   1.443   0.405
 3633SOL    HW222931   8.704   1.409   0.431
 3634SOL     OW22932   5.810   6.078   6.123
 3634SOL    HW122933   5.731   6.107   6.068
 3634SOL    HW222934   5.781   6.007   6.187
 3635SOL     OW22935   1.058   1.554   0.983
 3635SOL    HW122936   1.089   1.463   1.013
 3635SOL    HW222937   1.008   1.545   0.897
 3636SOL     OW22938   9.017   1.088   5.992
 3636SOL    HW122939   9.021   1.183   6.023
 3636SOL    HW222940   9.109   1.049   5.993
 3637SOL     OW22941   9.318   1.945   0.886
 3637SOL    HW122942   9.343   2.033   0.925
 3637SOL    HW222943   9.263   1.894   0.952
 3638SOL     OW22944   7.900   3.546   0.305
 3638SOL    HW122945   7.968   3.618   0.315
 3638SOL    HW222946   7.828   3.558   0.373
 3639SOL     OW22947   2.304   0.425   6.132
 3639SOL    HW122948   2.299   0.499   6.066
 3639SOL    HW222949   2.257   0.451   6.217
 3640SOL     OW22950   8.837   6.935   1.096
 3640SOL    HW122951   8.849   6.979   1.186
 3640SOL    HW222952   8.756   6.974   1.052
 3641SOL     OW22953   1.793   8.100   6.560
 3641SOL    HW122954   1.824   8.177   6.616
 3641SOL    HW222955   1.807   8.015   6.612
 3642SOL     OW22956   3.100   0.049   6.584
 3642SOL    HW122957   3.179   0.110   6.578
 3642SOL    HW222958   3.016   0.103   6.574
 3643SOL     OW22959   1.537   7.215   6.089
 3643SOL    HW122960   1.550   7.116   6.095
 3643SOL    HW222961   1.506   7.239   5.997
 3644SOL     OW22962   0.461   2.771   0.995
 3644SOL    HW122963   0.425   2.787   1.087
 3644SOL    HW222964   0.458   2.856   0.942
 3645SOL     OW22965   1.781   1.428   1.582
 3645SOL    HW122966   1.683   1.414   1.594
 3645SOL    HW222967   1.826   1.426   1.672
 3646SOL     OW22968   6.707   4.707   0.336
 3646SOL    HW122969   6.770   4.679   0.263
 3646SOL    HW222970   6.730   4.800   0.366
 3647SOL     OW22971   6.560   2.143   6.069
 3647SOL    HW122972   6.530   2.106   5.981
 3647SOL    HW222973   6.572   2.242   6.061
 3648SOL     OW22974   1.841   2.607   5.936
 3648SOL    HW122975   1.763   2.591   5.997
 3648SOL    HW222976   1.808   2.639   5.848
 3649SOL     OW22977   8.727   3.344   6.921
 3649SOL    HW122978   8.668   3.356   6.841
 3649SOL    HW222979   8.823   3.347   6.892
 3650SOL     OW22980   1.392   6.549   0.801
 3650SOL    HW122981   1.473   6.490   0.806
 3650SOL    HW222982   1.413   6.629   0.744
 3651SOL     OW22983   1.285   5.770   4.786
 3651SOL    HW122984   1.351   5.793   4.714
 3651SOL    HW222985   1.260   5.674   4.777
 3652SOL     OW22986   2.858   6.069   6.682
 3652SOL    HW122987   2.785   6.016   6.725
 3652SOL    HW222988   2.818   6.147   6.634
 3653SOL     OW22989   4.971   7.141   5.485
 3653SOL    HW122990   4.944   7.045   5.494
 3653SOL    HW222991   5.071   7.146   5.475
 3654SOL     OW22992   5.867   5.797   6.615
 3654SOL    HW122993   5.795   5.798   6.684
 3654SOL    HW222994   5.933   5.725   6.637
 3655SOL     OW22995   0.153   3.989   6.087
 3655SOL    HW122996   0.219   3.916   6.103
 3655SOL    HW222997   0.174   4.066   6.147
 3656SOL     OW22998   9.127   6.248   5.587
 3656SOL    HW122999   9.120   6.300   5.671
 3656SOL    HW223000   9.213   6.271   5.541
 3657SOL     OW23001   7.978   6.730   6.932
 3657SOL    HW123002   7.938   6.765   7.016
 3657SOL    HW223003   7.910   6.676   6.883
 3658SOL     OW23004   7.748   2.317   1.960
 3658SOL    HW123005   7.708   2.249   2.021
 3658SOL    HW223006   7.720   2.409   1.988
 3659SOL     OW23007   7.835   5.602   6.100
 3659SOL    HW123008   7.754   5.638   6.145
 3659SOL    HW223009   7.860   5.662   6.024
 3660SOL     OW23010   7.843   7.151   6.915
 3660SOL    HW123011   7.781   7.085   6.872
 3660SOL    HW223012   7.937   7.134   6.884
 3661SOL     OW23013   2.230   5.917   0.451
 3661SOL    HW123014   2.131   5.906   0.464
 3661SOL    HW223015   2.266   5.838   0.401
 3662SOL     OW23016   5.503   2.841   1.494
 3662SOL    HW123017   5.527   2.923   1.545
 3662SOL    HW223018   5.429   2.862   1.429
 3663SOL     OW23019   0.555   8.162   1.141
 3663SOL    HW123020   0.497   8.138   1.219
 3663SOL    HW223021   0.640   8.203   1.174
 3664SOL     OW23022   0.903   7.596   0.582
 3664SOL    HW123023   0.983   7.610   0.640
 3664SOL    HW223024   0.925   7.530   0.510
 3665SOL     OW23025   2.449   7.186   0.408
 3665SOL    HW123026   2.524   7.249   0.390
 3665SOL    HW223027   2.484   7.092   0.409
 3666SOL     OW23028   3.367   0.564   5.544
 3666SOL    HW123029   3.430   0.594   5.616
 3666SOL    HW223030   3.418   0.548   5.459
 3667SOL     OW23031   3.404   1.543   6.720
 3667SOL    HW123032   3.387   1.620   6.781
 3667SOL    HW223033   3.495   1.505   6.739
 3668SOL     OW23034   3.236   5.606   0.722
 3668SOL    HW123035   3.248   5.527   0.782
 3668SOL    HW223036   3.271   5.584   0.631
 3669SOL     OW23037   3.988   2.744   0.660
 3669SOL    HW123038   4.010   2.790   0.574
 3669SOL    HW223039   3.900   2.698   0.651
 3670SOL     OW23040   7.914   4.194   6.138
 3670SOL    HW123041   7.951   4.109   6.176
 3670SOL    HW223042   7.960   4.272   6.180
 3671SOL     OW23043   4.316   2.405   5.927
 3671SOL    HW123044   4.251   2.460   5.979
 3671SOL    HW223045   4.291   2.406   5.830
 3672SOL     OW23046   2.905   5.422   0.515
 3672SOL    HW123047   2.882   5.411   0.611
 3672SOL    HW223048   2.946   5.512   0.501
 3673SOL     OW23049   8.342   0.304   0.456
 3673SOL    HW123050   8.265   0.338   0.401
 3673SOL    HW223051   8.307   0.250   0.532
 3674SOL     OW23052   3.138   7.198   1.048
 3674SOL    HW123053   3.101   7.223   1.138
 3674SOL    HW223054   3.102   7.109   1.020
 3675SOL     OW23055   3.063   3.739   1.201
 3675SOL    HW123056   3.035   3.809   1.266
 3675SOL    HW223057   3.134   3.681   1.242
 3676SOL     OW23058   6.620   3.874   5.829
 3676SOL    HW123059   6.664   3.910   5.747
 3676SOL    HW223060   6.645   3.778   5.842
 3677SOL     OW23061   7.687   7.557   6.236
 3677SOL    HW123062   7.661   7.461   6.245
 3677SOL    HW223063   7.627   7.603   6.170
 3678SOL     OW23064   3.826   3.364   6.729
 3678SOL    HW123065   3.840   3.311   6.645
 3678SOL    HW223066   3.748   3.326   6.778
 3679SOL     OW23067   8.263   6.192   6.221
 3679SOL    HW123068   8.211   6.189   6.306
 3679SOL    HW223069   8.347   6.244   6.235
 3680SOL     OW23070   2.381   3.046   6.072
 3680SOL    HW123071   2.281   3.034   6.070
 3680SOL    HW223072   2.403   3.140   6.048
 3681SOL     OW23073   6.636   0.895   6.200
 3681SOL    HW123074   6.595   0.864   6.114
 3681SOL    HW223075   6.733   0.914   6.185
 3682SOL     OW23076   2.155   2.308   5.612
 3682SOL    HW123077   2.196   2.227   5.572
 3682SOL    HW223078   2.128   2.289   5.706
 3683SOL     OW23079   5.154   1.012   0.462
 3683SOL    HW123080   5.082   1.071   0.498
 3683SOL    HW223081   5.134   0.916   0.485
 3684SOL     OW23082   0.270   5.026   5.751
 3684SOL    HW123083   0.182   4.984   5.772
 3684SOL    HW223084   0.285   5.023   5.652
 3685SOL     OW23085   8.668   3.070   5.297
 3685SOL    HW123086   8.661   3.157   5.345
 3685SOL    HW223087   8.585   3.054   5.243
 3686SOL     OW23088   6.892   1.148   0.722
 3686SOL    HW123089   6.915   1.107   0.634
 3686SOL    HW223090   6.802   1.115   0.752
 3687SOL     OW23091   4.963   3.123   0.900
 3687SOL    HW123092   4.994   3.029   0.887
 3687SOL    HW223093   4.964   3.146   0.997
 3688SOL     OW23094   9.414   0.751   0.495
 3688SOL    HW123095   9.376   0.737   0.587
 3688SOL    HW223096   9.511   0.728   0.495
 3689SOL     OW23097   5.224   6.251   6.918
 3689SOL    HW123098   5.164   6.331   6.915
 3689SOL    HW223099   5.283   6.257   6.998
 3690SOL     OW23100   8.656   3.174   6.233
 3690SOL    HW123101   8.617   3.220   6.313
 3690SOL    HW223102   8.694   3.086   6.259
 3691SOL     OW23103   3.153   1.668   1.339
 3691SOL    HW123104   3.250   1.661   1.363
 3691SOL    HW223105   3.097   1.655   1.421
 3692SOL     OW23106   1.074   7.753   5.439
 3692SOL    HW123107   0.986   7.708   5.418
 3692SOL    HW223108   1.073   7.846   5.402
 3693SOL     OW23109   6.811   4.439   5.672
 3693SOL    HW123110   6.776   4.516   5.725
 3693SOL    HW223111   6.911   4.435   5.682
 3694SOL     OW23112   4.721   2.934   6.419
 3694SOL    HW123113   4.803   2.886   6.387
 3694SOL    HW223114   4.747   3.001   6.489
 3695SOL     OW23115   5.586   6.210   5.968
 3695SOL    HW123116   5.514   6.270   6.003
 3695SOL    HW223117   5.604   6.231   5.872
 3696SOL     OW23118   6.018   0.777   0.760
 3696SOL    HW123119   5.986   0.812   0.848
 3696SOL    HW223120   5.973   0.827   0.686
 3697SOL     OW23121   8.177   7.033   1.075
 3697SOL    HW123122   8.226   7.120   1.078
 3697SOL    HW223123   8.227   6.969   1.017
 3698SOL     OW23124   7.843   2.439   0.739
 3698SOL    HW123125   7.801   2.433   0.649
 3698SOL    HW223126   7.875   2.533   0.755
 3699SOL     OW23127   9.052   7.173   6.880
 3699SOL    HW123128   9.079   7.113   6.955
 3699SOL    HW223129   9.132   7.193   6.823
 3700SOL     OW23130   0.937   4.787   6.278
 3700SOL    HW123131   0.855   4.842   6.260
 3700SOL    HW223132   0.960   4.735   6.195
 3701SOL     OW23133   8.695   6.703   1.190
 3701SOL    HW123134   8.728   6.665   1.276
 3701SOL    HW223135   8.745   6.787   1.169
 3702SOL     OW23136   1.602   3.730   5.978
 3702SOL    HW123137   1.633   3.753   5.886
 3702SOL    HW223138   1.541   3.802   6.012
 3703SOL     OW23139   7.018   0.443   6.396
 3703SOL    HW123140   7.036   0.541   6.402
 3703SOL    HW223141   7.092   0.400   6.344
 3704SOL     OW23142   1.492   1.453   0.425
 3704SOL    HW123143   1.556   1.526   0.401
 3704SOL    HW223144   1.406   1.494   0.455
 3705SOL     OW23145   0.123   0.051   4.968
 3705SOL    HW123146   0.157   0.045   4.874
 3705SOL    HW223147   0.076   0.138   4.981
 3706SOL     OW23148   1.081   2.456   1.204
 3706SOL    HW123149   0.996   2.508   1.216
 3706SOL    HW223150   1.089   2.427   1.108
 3707SOL     OW23151   9.008   1.570   0.431
 3707SOL    HW123152   8.978   1.634   0.360
 3707SOL    HW223153   9.031   1.621   0.513
 3708SOL     OW23154   5.644   4.840   6.969
 3708SOL    HW123155   5.607   4.928   7.001
 3708SOL    HW223156   5.661   4.781   7.048
 3709SOL     OW23157   4.107   4.740   0.838
 3709SOL    HW123158   4.094   4.836   0.814
 3709SOL    HW223159   4.052   4.719   0.920
 3710SOL     OW23160   0.593   0.421   5.462
 3710SOL    HW123161   0.568   0.427   5.365
 3710SOL    HW223162   0.541   0.488   5.515
 3711SOL     OW23163   7.138   6.697   6.686
 3711SOL    HW123164   7.109   6.791   6.704
 3711SOL    HW223165   7.225   6.698   6.635
 3712SOL     OW23166   9.084   4.173   0.413
 3712SOL    HW123167   9.051   4.246   0.353
 3712SOL    HW223168   9.183   4.183   0.426
 3713SOL     OW23169   6.126   2.483   6.830
 3713SOL    HW123170   6.119   2.388   6.802
 3713SOL    HW223171   6.095   2.492   6.925
 3714SOL     OW23172   3.128   2.809   1.367
 3714SOL    HW123173   3.152   2.856   1.452
 3714SOL    HW223174   3.051   2.855   1.323
 3715SOL     OW23175   3.675   4.010   0.745
 3715SOL    HW123176   3.653   4.076   0.816
 3715SOL    HW223177   3.721   4.056   0.669
 3716SOL     OW23178   6.159   1.860   1.348
 3716SOL    HW123179   6.132   1.793   1.417
 3716SOL    HW223180   6.138   1.952   1.382
 3717SOL     OW23181   7.613   5.601   5.601
 3717SOL    HW123182   7.609   5.616   5.502
 3717SOL    HW223183   7.560   5.672   5.647
 3718SOL     OW23184   8.415   4.292   0.260
 3718SOL    HW123185   8.504   4.260   0.293
 3718SOL    HW223186   8.382   4.230   0.189
 3719SOL     OW23187   9.018   5.987   5.659
 3719SOL    HW123188   8.966   5.937   5.590
 3719SOL    HW223189   9.073   6.058   5.615
 3720SOL     OW23190   2.948   5.689   5.269
 3720SOL    HW123191   2.923   5.695   5.173
 3720SOL    HW223192   2.945   5.594   5.299
 3721SOL     OW23193   0.220   4.025   0.368
 3721SOL    HW123194   0.293   4.016   0.300
 3721SOL    HW223195   0.244   4.098   0.432
 3722SOL     OW23196   3.405   4.659   2.017
 3722SOL    HW123197   3.427   4.574   2.065
 3722SOL    HW223198   3.402   4.735   2.082
 3723SOL     OW23199   6.208   4.973   5.958
 3723SOL    HW123200   6.299   4.952   5.994
 3723SOL    HW223201   6.215   4.997   5.861
 3724SOL     OW23202   1.879   1.278   0.645
 3724SOL    HW123203   1.781   1.278   0.626
 3724SOL    HW223204   1.896   1.241   0.736
 3725SOL     OW23205   2.041   0.605   6.503
 3725SOL    HW123206   2.115   0.649   6.453
 3725SOL    HW223207   2.043   0.506   6.485
 3726SOL     OW23208   7.659   7.544   5.446
 3726SOL    HW123209   7.600   7.620   5.416
 3726SOL    HW223210   7.743   7.544   5.392
 3727SOL     OW23211   0.450   8.082   1.962
 3727SOL    HW123212   0.424   7.986   1.948
 3727SOL    HW223213   0.501   8.091   2.047
 3728SOL     OW23214   1.960   3.424   6.334
 3728SOL    HW123215   1.928   3.350   6.394
 3728SOL    HW223216   2.040   3.393   6.283
 3729SOL     OW23217   3.441   4.628   6.801
 3729SOL    HW123218   3.427   4.683   6.718
 3729SOL    HW223219   3.407   4.679   6.880
 3730SOL     OW23220   3.686   7.480   6.186
 3730SOL    HW123221   3.706   7.548   6.257
 3730SOL    HW223222   3.760   7.414   6.181
 3731SOL     OW23223   2.862   1.495   6.706
 3731SOL    HW123224   2.812   1.446   6.635
 3731SOL    HW223225   2.856   1.444   6.792
 3732SOL     OW23226   9.284   4.444   0.488
 3732SOL    HW123227   9.312   4.399   0.403
 3732SOL    HW223228   9.192   4.483   0.476
 3733SOL     OW23229   7.616   2.893   5.946
 3733SOL    HW123230   7.674   2.837   6.004
 3733SOL    HW223231   7.646   2.989   5.952
 3734SOL     OW23232   4.419   0.586   1.173
 3734SOL    HW123233   4.416   0.507   1.234
 3734SOL    HW223234   4.368   0.567   1.090
 3735SOL     OW23235   9.074   6.972   0.320
 3735SOL    HW123236   9.153   6.931   0.365
 3735SOL    HW223237   9.013   7.011   0.390
 3736SOL     OW23238   2.220   6.261   0.966
 3736SOL    HW123239   2.225   6.300   0.874
 3736SOL    HW223240   2.229   6.162   0.961
 3737SOL     OW23241   5.847   5.776   6.353
 3737SOL    HW123242   5.760   5.818   6.329
 3737SOL    HW223243   5.851   5.761   6.452
 3738SOL     OW23244   0.635   1.975   1.104
 3738SOL    HW123245   0.621   1.922   1.188
 3738SOL    HW223246   0.733   1.992   1.091
 3739SOL     OW23247   4.672   6.773   1.093
 3739SOL    HW123248   4.600   6.734   1.150
 3739SOL    HW223249   4.632   6.812   1.010
 3740SOL     OW23250   9.169   1.331   0.472
 3740SOL    HW123251   9.135   1.418   0.435
 3740SOL    HW223252   9.114   1.256   0.436
 3741SOL     OW23253   6.661   0.633   6.694
 3741SOL    HW123254   6.588   0.566   6.703
 3741SOL    HW223255   6.632   0.721   6.733
 3742SOL     OW23256   1.546   3.182   6.963
 3742SOL    HW123257   1.512   3.186   6.869
 3742SOL    HW223258   1.575   3.089   6.983
 3743SOL     OW23259   8.550   3.725   6.528
 3743SOL    HW123260   8.571   3.754   6.621
 3743SOL    HW223261   8.530   3.804   6.471
 3744SOL     OW23262   8.176   6.714   1.520
 3744SOL    HW123263   8.139   6.776   1.589
 3744SOL    HW223264   8.149   6.745   1.429
 3745SOL     OW23265   8.496   5.776   6.940
 3745SOL    HW123266   8.498   5.875   6.954
 3745SOL    HW223267   8.467   5.731   7.024
 3746SOL     OW23268   2.536   1.093   1.413
 3746SOL    HW123269   2.525   1.000   1.377
 3746SOL    HW223270   2.459   1.150   1.384
 3747SOL     OW23271   0.919   5.146   6.769
 3747SOL    HW123272   0.958   5.107   6.685
 3747SOL    HW223273   0.993   5.163   6.835
 3748SOL     OW23274   1.055   4.336   1.465
 3748SOL    HW123275   0.991   4.269   1.502
 3748SOL    HW223276   1.059   4.415   1.526
 3749SOL     OW23277   3.323   2.684   5.831
 3749SOL    HW123278   3.339   2.636   5.745
 3749SOL    HW223279   3.303   2.780   5.812
 3750SOL     OW23280   6.609   7.546   2.225
 3750SOL    HW123281   6.670   7.621   2.199
 3750SOL    HW223282   6.663   7.466   2.250
 3751SOL     OW23283   2.216   6.763   5.909
 3751SOL    HW123284   2.283   6.831   5.878
 3751SOL    HW223285   2.263   6.682   5.942
 3752SOL     OW23286   5.651   2.304   2.188
 3752SOL    HW123287   5.719   2.364   2.230
 3752SOL    HW223288   5.690   2.260   2.107
 3753SOL     OW23289   1.569   4.767   6.934
 3753SOL    HW123290   1.667   4.743   6.938
 3753SOL    HW223291   1.552   4.825   6.855
 3754SOL     OW23292   5.515   3.248   0.317
 3754SOL    HW123293   5.607   3.222   0.344
 3754SOL    HW223294   5.493   3.338   0.355
 3755SOL     OW23295   8.596   6.297   1.580
 3755SOL    HW123296   8.555   6.370   1.635
 3755SOL    HW223297   8.684   6.328   1.543
 3756SOL     OW23298   7.233   5.587   0.272
 3756SOL    HW123299   7.175   5.665   0.296
 3756SOL    HW223300   7.209   5.508   0.328
 3757SOL     OW23301   3.869   7.163   5.565
 3757SOL    HW123302   3.917   7.185   5.480
 3757SOL    HW223303   3.858   7.246   5.620
 3758SOL     OW23304   2.958   0.186   1.124
 3758SOL    HW123305   3.008   0.101   1.109
 3758SOL    HW223306   3.022   0.257   1.155
 3759SOL     OW23307   5.059   2.308   6.271
 3759SOL    HW123308   5.068   2.366   6.190
 3759SOL    HW223309   4.972   2.326   6.316
 3760SOL     OW23310   2.358   4.007   1.391
 3760SOL    HW123311   2.379   4.027   1.296
 3760SOL    HW223312   2.436   4.033   1.449
 3761SOL     OW23313   2.428   2.953   6.432
 3761SOL    HW123314   2.510   3.009   6.436
 3761SOL    HW223315   2.349   3.011   6.413
 3762SOL     OW23316   5.065   5.886   0.806
 3762SOL    HW123317   5.164   5.883   0.819
 3762SOL    HW223318   5.019   5.882   0.895
 3763SOL     OW23319   1.693   0.015   1.189
 3763SOL    HW123320   1.788   0.031   1.216
 3763SOL    HW223321   1.640  -0.014   1.269
 3764SOL     OW23322   7.056   1.453   5.697
 3764SOL    HW123323   6.987   1.385   5.720
 3764SOL    HW223324   7.147   1.412   5.703
 3765SOL     OW23325   1.099   2.332   1.721
 3765SOL    HW123326   1.128   2.420   1.759
 3765SOL    HW223327   1.049   2.280   1.791
 3766SOL     OW23328   5.937   1.514   1.172
 3766SOL    HW123329   5.871   1.459   1.224
 3766SOL    HW223330   5.991   1.454   1.113
 3767SOL     OW23331   8.051   8.025   6.435
 3767SOL    HW123332   8.066   8.022   6.534
 3767SOL    HW223333   7.964   8.070   6.416
 3768SOL     OW23334   7.840   7.507   0.641
 3768SOL    HW123335   7.760   7.520   0.700
 3768SOL    HW223336   7.908   7.451   0.688
 3769SOL     OW23337   6.804   6.371   4.919
 3769SOL    HW123338   6.721   6.382   4.864
 3769SOL    HW223339   6.832   6.275   4.918
 3770SOL     OW23340   7.651   4.151   6.087
 3770SOL    HW123341   7.740   4.161   6.133
 3770SOL    HW223342   7.637   4.055   6.064
 3771SOL     OW23343   1.183   0.434   5.441
 3771SOL    HW123344   1.145   0.366   5.505
 3771SOL    HW223345   1.190   0.393   5.350
 3772SOL     OW23346   3.918   1.347   6.490
 3772SOL    HW123347   3.849   1.310   6.428
 3772SOL    HW223348   4.002   1.367   6.439
 3773SOL     OW23349   3.901   6.557   1.279
 3773SOL    HW123350   3.826   6.592   1.335
 3773SOL    HW223351   3.916   6.460   1.300
 3774SOL     OW23352   8.579   6.999   0.960
 3774SOL    HW123353   8.639   6.970   0.885
 3774SOL    HW223354   8.510   6.929   0.976
 3775SOL     OW23355   6.226   5.685   5.853
 3775SOL    HW123356   6.178   5.606   5.893
 3775SOL    HW223357   6.270   5.737   5.926
 3776SOL     OW23358   1.896   0.269   1.012
 3776SOL    HW123359   1.881   0.194   1.076
 3776SOL    HW223360   1.871   0.240   0.920
 3777SOL     OW23361   6.408   8.024   0.340
 3777SOL    HW123362   6.470   7.952   0.370
 3777SOL    HW223363   6.426   8.108   0.391
 3778SOL     OW23364   9.022   1.188   6.762
 3778SOL    HW123365   8.955   1.179   6.836
 3778SOL    HW223366   9.091   1.116   6.771
 3779SOL     OW23367   1.919   7.690   0.370
 3779SOL    HW123368   1.843   7.662   0.311
 3779SOL    HW223369   1.894   7.773   0.420
 3780SOL     OW23370   2.686   3.665   1.502
 3780SOL    HW123371   2.591   3.696   1.517
 3780SOL    HW223372   2.726   3.638   1.589
 3781SOL     OW23373   6.617  -0.027   0.647
 3781SOL    HW123374   6.531  -0.012   0.598
 3781SOL    HW223375   6.610   0.007   0.740
 3782SOL     OW23376   7.520   4.820   0.316
 3782SOL    HW123377   7.616   4.846   0.319
 3782SOL    HW223378   7.488   4.800   0.409
 3783SOL     OW23379   0.923   7.370   4.312
 3783SOL    HW123380   0.970   7.457   4.298
 3783SOL    HW223381   0.980   7.309   4.367
 3784SOL     OW23382   6.314   6.318   6.826
 3784SOL    HW123383   6.397   6.354   6.871
 3784SOL    HW223384   6.307   6.220   6.843
 3785SOL     OW23385   2.168   3.339   1.075
 3785SOL    HW123386   2.218   3.421   1.047
 3785SOL    HW223387   2.211   3.258   1.034
 3786SOL     OW23388   5.379   4.766   6.546
 3786SOL    HW123389   5.476   4.765   6.521
 3786SOL    HW223390   5.347   4.672   6.558
 3787SOL     OW23391   5.027   1.699   1.982
 3787SOL    HW123392   5.086   1.650   2.045
 3787SOL    HW223393   4.961   1.753   2.033
 3788SOL     OW23394   8.946   1.766   6.763
 3788SOL    HW123395   8.886   1.686   6.755
 3788SOL    HW223396   9.023   1.757   6.700
 3789SOL     OW23397   7.624   1.365   6.461
 3789SOL    HW123398   7.717   1.329   6.466
 3789SOL    HW223399   7.612   1.435   6.531
 3790SOL     OW23400   8.843   5.224   5.411
 3790SOL    HW123401   8.891   5.174   5.339
 3790SOL    HW223402   8.801   5.306   5.373
 3791SOL     OW23403   1.429   6.579   1.104
 3791SOL    HW123404   1.405   6.560   1.009
 3791SOL    HW223405   1.496   6.512   1.135
 3792SOL     OW23406   3.242   2.942   0.707
 3792SOL    HW123407   3.246   2.928   0.806
 3792SOL    HW223408   3.321   2.996   0.678
 3793SOL     OW23409   4.046   1.667   6.818
 3793SOL    HW123410   4.093   1.695   6.735
 3793SOL    HW223411   4.057   1.736   6.889
 3794SOL     OW23412   0.531   6.836   6.421
 3794SOL    HW123413   0.585   6.920   6.427
 3794SOL    HW223414   0.444   6.849   6.468
 3795SOL     OW23415   4.277   3.230   1.941
 3795SOL    HW123416   4.259   3.296   1.867
 3795SOL    HW223417   4.344   3.163   1.910
 3796SOL     OW23418   5.226   2.361   0.489
 3796SOL    HW123419   5.272   2.276   0.462
 3796SOL    HW223420   5.295   2.432   0.505
 3797SOL     OW23421   9.265   2.840   1.959
 3797SOL    HW123422   9.309   2.928   1.974
 3797SOL    HW223423   9.169   2.845   1.988
 3798SOL     OW23424   1.689   8.010   4.391
 3798SOL    HW123425   1.626   8.088   4.385
 3798SOL    HW223426   1.693   7.978   4.486
 3799SOL     OW23427   1.674   2.926   5.734
 3799SOL    HW123428   1.689   3.013   5.780
 3799SOL    HW223429   1.627   2.941   5.647
 3800SOL     OW23430   2.804   6.548   6.474
 3800SOL    HW123431   2.854   6.629   6.445
 3800SOL    HW223432   2.779   6.557   6.570
 3801SOL     OW23433   8.303   8.268   0.290
 3801SOL    HW123434   8.284   8.182   0.242
 3801SOL    HW223435   8.267   8.263   0.383
 3802SOL     OW23436   1.672   3.752   5.690
 3802SOL    HW123437   1.723   3.733   5.606
 3802SOL    HW223438   1.600   3.684   5.702
 3803SOL     OW23439   3.822   0.078   6.892
 3803SOL    HW123440   3.750   0.108   6.955
 3803SOL    HW223441   3.902   0.047   6.945
 3804SOL     OW23442   2.496   1.638   1.610
 3804SOL    HW123443   2.404   1.676   1.618
 3804SOL    HW223444   2.559   1.693   1.665
 3805SOL     OW23445   7.323   7.797   6.788
 3805SOL    HW123446   7.315   7.823   6.692
 3805SOL    HW223447   7.232   7.779   6.826
 3806SOL     OW23448   1.572   3.403   6.622
 3806SOL    HW123449   1.548   3.458   6.542
 3806SOL    HW223450   1.517   3.320   6.623
 3807SOL     OW23451   6.438   4.406   5.967
 3807SOL    HW123452   6.520   4.388   6.021
 3807SOL    HW223453   6.409   4.501   5.980
 3808SOL     OW23454   0.791   1.837   5.224
 3808SOL    HW123455   0.806   1.752   5.174
 3808SOL    HW223456   0.847   1.910   5.183
 3809SOL     OW23457   4.560   0.138   5.484
 3809SOL    HW123458   4.628   0.091   5.429
 3809SOL    HW223459   4.472   0.091   5.476
 3810SOL     OW23460   0.405   4.630   5.540
 3810SOL    HW123461   0.389   4.610   5.444
 3810SOL    HW223462   0.498   4.663   5.553
 3811SOL     OW23463   7.734   2.699   0.993
 3811SOL    HW123464   7.733   2.675   1.090
 3811SOL    HW223465   7.827   2.690   0.957
 3812SOL     OW23466   7.447   5.406   0.507
 3812SOL    HW123467   7.472   5.487   0.561
 3812SOL    HW223468   7.500   5.406   0.422
 3813SOL     OW23469   1.134   6.083   6.026
 3813SOL    HW123470   1.087   6.171   6.034
 3813SOL    HW223471   1.083   6.014   6.077
 3814SOL     OW23472   0.736   5.815   5.293
 3814SOL    HW123473   0.773   5.779   5.378
 3814SOL    HW223474   0.811   5.850   5.236
 3815SOL     OW23475   2.293   0.089   5.765
 3815SOL    HW123476   2.273   0.026   5.690
 3815SOL    HW223477   2.390   0.110   5.767
 3816SOL     OW23478   5.293   6.349   5.901
 3816SOL    HW123479   5.301   6.355   6.001
 3816SOL    HW223480   5.201   6.377   5.874
 3817SOL     OW23481   5.539   0.517   1.738
 3817SOL    HW123482   5.549   0.582   1.813
 3817SOL    HW223483   5.625   0.510   1.688
 3818SOL     OW23484   2.495   0.169   1.037
 3818SOL    HW123485   2.416   0.128   1.082
 3818SOL    HW223486   2.468   0.255   0.993
 3819SOL     OW23487   5.270   5.670   5.585
 3819SOL    HW123488   5.312   5.760   5.600
 3819SOL    HW223489   5.218   5.671   5.500
 3820SOL     OW23490   4.815   7.746   6.752
 3820SOL    HW123491   4.852   7.710   6.666
 3820SOL    HW223492   4.866   7.829   6.777
 3821SOL     OW23493   1.043   4.891   4.898
 3821SOL    HW123494   1.092   4.827   4.959
 3821SOL    HW223495   1.109   4.953   4.855
 3822SOL     OW23496   1.968   3.244   6.037
 3822SOL    HW123497   2.029   3.318   6.007
 3822SOL    HW223498   1.908   3.278   6.109
 3823SOL     OW23499   0.123   0.213   5.943
 3823SOL    HW123500   0.203   0.165   5.978
 3823SOL    HW223501   0.051   0.146   5.923
 3824SOL     OW23502   0.628   0.961   1.398
 3824SOL    HW123503   0.694   0.888   1.380
 3824SOL    HW223504   0.548   0.922   1.444
 3825SOL     OW23505   1.259   1.900   5.940
 3825SOL    HW123506   1.296   1.807   5.941
 3825SOL    HW223507   1.330   1.964   5.909
 3826SOL     OW23508   6.332   5.744   6.727
 3826SOL    HW123509   6.286   5.809   6.667
 3826SOL    HW223510   6.265   5.701   6.787
 3827SOL     OW23511   3.165   6.605   0.377
 3827SOL    HW123512   3.072   6.640   0.390
 3827SOL    HW223513   3.175   6.517   0.425
 3828SOL     OW23514   0.126   5.431   1.603
 3828SOL    HW123515   0.143   5.482   1.519
 3828SOL    HW223516   0.137   5.492   1.682
 3829SOL     OW23517   6.757   0.399   6.512
 3829SOL    HW123518   6.817   0.408   6.433
 3829SOL    HW223519   6.756   0.484   6.564
 3830SOL     OW23520   0.829   6.703   0.486
 3830SOL    HW123521   0.864   6.742   0.400
 3830SOL    HW223522   0.847   6.767   0.561
 3831SOL     OW23523   6.805   2.700   1.223
 3831SOL    HW123524   6.827   2.603   1.240
 3831SOL    HW223525   6.886   2.746   1.186
 3832SOL     OW23526   2.852   0.824   0.967
 3832SOL    HW123527   2.775   0.859   0.912
 3832SOL    HW223528   2.932   0.813   0.909
 3833SOL     OW23529   7.727   1.807   6.565
 3833SOL    HW123530   7.655   1.738   6.558
 3833SOL    HW223531   7.797   1.777   6.629
 3834SOL     OW23532   5.115   1.957   0.842
 3834SOL    HW123533   5.192   2.004   0.888
 3834SOL    HW223534   5.080   2.015   0.769
 3835SOL     OW23535   0.616   6.281   1.453
 3835SOL    HW123536   0.644   6.377   1.450
 3835SOL    HW223537   0.608   6.251   1.548
 3836SOL     OW23538   6.213   6.360   6.255
 3836SOL    HW123539   6.255   6.441   6.295
 3836SOL    HW223540   6.212   6.368   6.156
 3837SOL     OW23541   6.464   0.827   0.799
 3837SOL    HW123542   6.392   0.863   0.858
 3837SOL    HW223543   6.434   0.830   0.703
 3838SOL     OW23544   9.142   5.749   0.809
 3838SOL    HW123545   9.145   5.849   0.810
 3838SOL    HW223546   9.047   5.718   0.820
 3839SOL     OW23547   9.171   7.053   5.220
 3839SOL    HW123548   9.160   7.138   5.272
 3839SOL    HW223549   9.264   7.049   5.183
 3840SOL     OW23550   9.365   8.144   6.680
 3840SOL    HW123551   9.290   8.203   6.710
 3840SOL    HW223552   9.354   8.122   6.583
 3841SOL     OW23553   5.546   1.157   5.916
 3841SOL    HW123554   5.548   1.199   6.006
 3841SOL    HW223555   5.553   1.058   5.925
 3842SOL     OW23556   2.677   8.124   6.085
 3842SOL    HW123557   2.704   8.055   6.017
 3842SOL    HW223558   2.750   8.191   6.096
 3843SOL     OW23559   0.946   3.246   5.155
 3843SOL    HW123560   0.904   3.337   5.149
 3843SOL    HW223561   1.019   3.248   5.224
 3844SOL     OW23562   8.133   6.510   5.756
 3844SOL    HW123563   8.231   6.490   5.760
 3844SOL    HW223564   8.088   6.476   5.838
 3845SOL     OW23565   8.471   0.654   6.570
 3845SOL    HW123566   8.459   0.595   6.651
 3845SOL    HW223567   8.423   0.740   6.585
 3846SOL     OW23568   1.373   7.213   6.385
 3846SOL    HW123569   1.438   7.177   6.453
 3846SOL    HW223570   1.417   7.216   6.295
 3847SOL     OW23571   1.338   6.964   0.760
 3847SOL    HW123572   1.343   7.016   0.845
 3847SOL    HW223573   1.421   6.910   0.749
 3848SOL     OW23574   8.484   3.110   1.175
 3848SOL    HW123575   8.450   3.198   1.141
 3848SOL    HW223576   8.583   3.113   1.181
 3849SOL     OW23577   7.007   4.544   5.381
 3849SOL    HW123578   7.059   4.513   5.461
 3849SOL    HW223579   7.037   4.493   5.300
 3850SOL     OW23580   2.116   3.279   5.653
 3850SOL    HW123581   2.047   3.228   5.601
 3850SOL    HW223582   2.193   3.218   5.675
 3851SOL     OW23583   7.842   4.677   6.113
 3851SOL    HW123584   7.762   4.629   6.077
 3851SOL    HW223585   7.892   4.720   6.038
 3852SOL     OW23586   0.209   4.646   6.596
 3852SOL    HW123587   0.287   4.709   6.592
 3852SOL    HW223588   0.130   4.693   6.636
 3853SOL     OW23589   7.413   3.983   0.296
 3853SOL    HW123590   7.456   4.044   0.229
 3853SOL    HW223591   7.316   4.005   0.303
 3854SOL     OW23592   3.728   2.279   5.991
 3854SOL    HW123593   3.743   2.237   5.901
 3854SOL    HW223594   3.783   2.233   6.060
 3855SOL     OW23595   4.006   0.800   6.776
 3855SOL    HW123596   4.088   0.840   6.816
 3855SOL    HW223597   3.991   0.841   6.685
 3856SOL     OW23598   2.135   4.268   5.449
 3856SOL    HW123599   2.216   4.327   5.447
 3856SOL    HW223600   2.097   4.260   5.357
 3857SOL     OW23601   8.478   0.924   1.408
 3857SOL    HW123602   8.519   0.856   1.348
 3857SOL    HW223603   8.527   1.010   1.400
 3858SOL     OW23604   5.926   8.111   0.649
 3858SOL    HW123605   5.906   8.177   0.577
 3858SOL    HW223606   5.850   8.109   0.714
 3859SOL     OW23607   3.511   6.125   2.067
 3859SOL    HW123608   3.573   6.047   2.076
 3859SOL    HW223609   3.432   6.111   2.127
 3860SOL     OW23610   6.720   7.407   6.136
 3860SOL    HW123611   6.727   7.309   6.119
 3860SOL    HW223612   6.724   7.425   6.234
 3861SOL     OW23613   5.472   8.234   6.019
 3861SOL    HW123614   5.485   8.286   5.935
 3861SOL    HW223615   5.560   8.208   6.056
 3862SOL     OW23616   4.425   0.436   0.627
 3862SOL    HW123617   4.518   0.466   0.648
 3862SOL    HW223618   4.405   0.352   0.678
 3863SOL     OW23619   2.609   0.678   1.614
 3863SOL    HW123620   2.531   0.736   1.592
 3863SOL    HW223621   2.584   0.613   1.685
 3864SOL     OW23622   3.582   0.078   0.653
 3864SOL    HW123623   3.588   0.026   0.738
 3864SOL    HW223624   3.673   0.092   0.616
 3865SOL     OW23625   6.756   1.257   6.325
 3865SOL    HW123626   6.841   1.280   6.278
 3865SOL    HW223627   6.764   1.166   6.366
 3866SOL     OW23628   6.445   5.478   0.613
 3866SOL    HW123629   6.511   5.487   0.688
 3866SOL    HW223630   6.385   5.559   0.612
 3867SOL     OW23631   7.467   3.516   0.436
 3867SOL    HW123632   7.437   3.580   0.507
 3867SOL    HW223633   7.413   3.432   0.442
 3868SOL     OW23634   4.867   5.776   6.045
 3868SOL    HW123635   4.913   5.721   5.976
 3868SOL    HW223636   4.892   5.872   6.033
 3869SOL     OW23637   9.138   4.197   6.568
 3869SOL    HW123638   9.153   4.275   6.507
 3869SOL    HW223639   9.045   4.199   6.604
 3870SOL     OW23640   3.646   1.772   0.734
 3870SOL    HW123641   3.704   1.694   0.758
 3870SOL    HW223642   3.616   1.764   0.640
 3871SOL     OW23643   5.289   5.394   1.396
 3871SOL    HW123644   5.341   5.311   1.417
 3871SOL    HW223645   5.345   5.474   1.417
 3872SOL     OW23646   2.858   4.062   5.501
 3872SOL    HW123647   2.881   3.965   5.491
 3872SOL    HW223648   2.771   4.071   5.548
 3873SOL     OW23649   0.937   5.133   6.120
 3873SOL    HW123650   0.892   5.094   6.200
 3873SOL    HW223651   0.877   5.204   6.080
 3874SOL     OW23652   0.924   0.293   6.934
 3874SOL    HW123653   0.851   0.261   6.874
 3874SOL    HW223654   0.892   0.290   7.029
 3875SOL     OW23655   8.161   3.567   1.324
 3875SOL    HW123656   8.231   3.553   1.394
 3875SOL    HW223657   8.107   3.483   1.314
 3876SOL     OW23658   8.438   7.587   6.707
 3876SOL    HW123659   8.342   7.607   6.690
 3876SOL    HW223660   8.447   7.528   6.787
 3877SOL     OW23661   6.668   6.848   1.386
 3877SOL    HW123662   6.702   6.843   1.480
 3877SOL    HW223663   6.592   6.912   1.381
 3878SOL     OW23664   9.543   7.351   0.958
 3878SOL    HW123665   9.508   7.266   0.998
 3878SOL    HW223666   9.642   7.357   0.974
 3879SOL     OW23667   1.919   2.541   0.322
 3879SOL    HW123668   1.945   2.466   0.260
 3879SOL    HW223669   1.829   2.575   0.296
 3880SOL     OW23670   5.059   6.428   5.791
 3880SOL    HW123671   4.979   6.393   5.839
 3880SOL    HW223672   5.042   6.427   5.693
 3881SOL     OW23673   5.344   6.096   6.133
 3881SOL    HW123674   5.348   6.053   6.043
 3881SOL    HW223675   5.335   6.026   6.204
 3882SOL     OW23676   0.678  -0.013   1.988
 3882SOL    HW123677   0.764  -0.056   2.017
 3882SOL    HW223678   0.685   0.086   2.001
 3883SOL     OW23679   6.119   0.723   6.889
 3883SOL    HW123680   6.119   0.628   6.919
 3883SOL    HW223681   6.118   0.727   6.790
 3884SOL     OW23682   3.938   7.779   6.522
 3884SOL    HW123683   4.019   7.744   6.476
 3884SOL    HW223684   3.938   7.748   6.617
 3885SOL     OW23685   6.268   7.949   0.906
 3885SOL    HW123686   6.315   7.884   0.965
 3885SOL    HW223687   6.263   7.913   0.813
 3886SOL     OW23688   5.780   4.810   0.995
 3886SOL    HW123689   5.722   4.735   1.025
 3886SOL    HW223690   5.788   4.807   0.895
 3887SOL     OW23691   4.160   1.697   6.558
 3887SOL    HW123692   4.231   1.767   6.565
 3887SOL    HW223693   4.189   1.625   6.496
 3888SOL     OW23694   1.943   1.538   0.692
 3888SOL    HW123695   1.910   1.447   0.670
 3888SOL    HW223696   1.873   1.586   0.746
 3889SOL     OW23697   8.720   5.080   6.726
 3889SOL    HW123698   8.781   5.154   6.701
 3889SOL    HW223699   8.711   5.075   6.825
 3890SOL     OW23700   9.162   3.488   5.532
 3890SOL    HW123701   9.078   3.453   5.490
 3890SOL    HW223702   9.235   3.490   5.464
 3891SOL     OW23703   4.499   6.310   5.592
 3891SOL    HW123704   4.423   6.253   5.564
 3891SOL    HW223705   4.581   6.285   5.540
 3892SOL     OW23706   7.366   3.876   1.544
 3892SOL    HW123707   7.359   3.893   1.642
 3892SOL    HW223708   7.342   3.959   1.494
 3893SOL     OW23709   6.635   0.028   6.486
 3893SOL    HW123710   6.706   0.086   6.446
 3893SOL    HW223711   6.672  -0.065   6.497
 3894SOL     OW23712   2.229   7.087   6.847
 3894SOL    HW123713   2.175   7.052   6.924
 3894SOL    HW223714   2.267   7.176   6.870
 3895SOL     OW23715   8.190   5.435   6.929
 3895SOL    HW123716   8.184   5.421   6.830
 3895SOL    HW223717   8.166   5.529   6.951
 3896SOL     OW23718   5.723   0.662   5.889
 3896SOL    HW123719   5.712   0.616   5.977
 3896SOL    HW223720   5.753   0.595   5.820
 3897SOL     OW23721   8.666   2.926   0.811
 3897SOL    HW123722   8.581   2.978   0.822
 3897SOL    HW223723   8.716   2.960   0.732
 3898SOL     OW23724   6.141   0.687   0.505
 3898SOL    HW123725   6.147   0.787   0.496
 3898SOL    HW223726   6.224   0.645   0.470
 3899SOL     OW23727   8.796   0.819   0.678
 3899SOL    HW123728   8.718   0.845   0.734
 3899SOL    HW223729   8.765   0.800   0.584
 3900SOL     OW23730   6.562   6.856   6.349
 3900SOL    HW123731   6.518   6.823   6.433
 3900SOL    HW223732   6.648   6.808   6.335
 3901SOL     OW23733   0.183   0.600   1.143
 3901SOL    HW123734   0.281   0.620   1.146
 3901SOL    HW223735   0.157   0.552   1.227
 3902SOL     OW23736   3.505   1.073   2.192
 3902SOL    HW123737   3.526   1.011   2.268
 3902SOL    HW223738   3.590   1.098   2.146
 3903SOL     OW23739   7.451   1.192   6.618
 3903SOL    HW123740   7.485   1.241   6.539
 3903SOL    HW223741   7.375   1.132   6.590
 3904SOL     OW23742   6.588   2.316   6.351
 3904SOL    HW123743   6.666   2.378   6.356
 3904SOL    HW223744   6.564   2.300   6.255
 3905SOL     OW23745   5.450   0.906   6.264
 3905SOL    HW123746   5.390   0.966   6.212
 3905SOL    HW223747   5.535   0.953   6.285
 3906SOL     OW23748   2.430   7.432   1.816
 3906SOL    HW123749   2.502   7.452   1.882
 3906SOL    HW223750   2.359   7.377   1.859
 3907SOL     OW23751   9.230   2.451   5.849
 3907SOL    HW123752   9.324   2.482   5.837
 3907SOL    HW223753   9.182   2.457   5.761
 3908SOL     OW23754   3.783   2.534   0.307
 3908SOL    HW123755   3.755   2.439   0.322
 3908SOL    HW223756   3.725   2.595   0.361
 3909SOL     OW23757   8.149   3.863   1.107
 3909SOL    HW123758   8.092   3.782   1.097
 3909SOL    HW223759   8.179   3.871   1.202
 3910SOL     OW23760   8.905   3.750   6.553
 3910SOL    HW123761   8.963   3.767   6.632
 3910SOL    HW223762   8.915   3.825   6.488
 3911SOL     OW23763   8.851   7.150   5.039
 3911SOL    HW123764   8.891   7.107   4.959
 3911SOL    HW223765   8.890   7.241   5.052
 3912SOL     OW23766   3.137   3.410   0.330
 3912SOL    HW123767   3.229   3.445   0.348
 3912SOL    HW223768   3.117   3.420   0.232
 3913SOL     OW23769   5.877   5.949   5.453
 3913SOL    HW123770   5.791   5.923   5.498
 3913SOL    HW223771   5.857   5.999   5.369
 3914SOL     OW23772   8.484   4.392   0.945
 3914SOL    HW123773   8.490   4.316   0.880
 3914SOL    HW223774   8.575   4.427   0.964
 3915SOL     OW23775   0.524   3.012   5.877
 3915SOL    HW123776   0.472   3.072   5.816
 3915SOL    HW223777   0.511   3.041   5.971
 3916SOL     OW23778   1.132   0.879   6.854
 3916SOL    HW123779   1.158   0.783   6.840
 3916SOL    HW223780   1.055   0.883   6.917
 3917SOL     OW23781   2.033   6.383   6.221
 3917SOL    HW123782   1.977   6.464   6.201
 3917SOL    HW223783   2.089   6.361   6.141
 3918SOL     OW23784   4.885   0.428   4.984
 3918SOL    HW123785   4.952   0.387   4.922
 3918SOL    HW223786   4.896   0.528   4.982
 3919SOL     OW23787   5.813   4.723   1.317
 3919SOL    HW123788   5.740   4.727   1.385
 3919SOL    HW223789   5.773   4.715   1.226
 3920SOL     OW23790   8.883   1.920   0.912
 3920SOL    HW123791   8.902   1.934   0.815
 3920SOL    HW223792   8.838   2.002   0.949
 3921SOL     OW23793   3.856   7.661   0.950
 3921SOL    HW123794   3.790   7.591   0.919
 3921SOL    HW223795   3.814   7.715   1.023
 3922SOL     OW23796   8.764   4.417   0.912
 3922SOL    HW123797   8.845   4.402   0.855
 3922SOL    HW223798   8.745   4.335   0.966
 3923SOL     OW23799   6.713   4.719   1.031
 3923SOL    HW123800   6.743   4.641   1.086
 3923SOL    HW223801   6.766   4.722   0.946
 3924SOL     OW23802   6.245   0.728   1.032
 3924SOL    HW123803   6.195   0.707   0.948
 3924SOL    HW223804   6.269   0.825   1.034
 3925SOL     OW23805   8.549   6.609   4.970
 3925SOL    HW123806   8.639   6.644   4.944
 3925SOL    HW223807   8.482   6.682   4.964
 3926SOL     OW23808   0.954   1.661   1.230
 3926SOL    HW123809   0.858   1.689   1.232
 3926SOL    HW223810   0.980   1.636   1.137
 3927SOL     OW23811   2.074   2.263   5.893
 3927SOL    HW123812   2.033   2.205   5.963
 3927SOL    HW223813   2.088   2.355   5.930
 3928SOL     OW23814   1.742   3.249   6.189
 3928SOL    HW123815   1.752   3.248   6.288
 3928SOL    HW223816   1.673   3.317   6.163
 3929SOL     OW23817   5.540   6.466   5.473
 3929SOL    HW123818   5.612   6.406   5.438
 3929SOL    HW223819   5.468   6.476   5.404
 3930SOL     OW23820   5.139   0.128   5.219
 3930SOL    HW123821   5.230   0.116   5.178
 3930SOL    HW223822   5.072   0.075   5.168
 3931SOL     OW23823   1.666   0.092   6.038
 3931SOL    HW123824   1.712   0.141   5.964
 3931SOL    HW223825   1.726   0.085   6.117
 3932SOL     OW23826   1.785   7.480   5.602
 3932SOL    HW123827   1.803   7.577   5.618
 3932SOL    HW223828   1.706   7.470   5.542
 3933SOL     OW23829   3.555   2.959   5.547
 3933SOL    HW123830   3.597   3.002   5.626
 3933SOL    HW223831   3.455   2.966   5.554
 3934SOL     OW23832   2.921   2.264   6.301
 3934SOL    HW123833   2.898   2.167   6.312
 3934SOL    HW223834   2.852   2.320   6.346
 3935SOL     OW23835   0.764   8.122   6.294
 3935SOL    HW123836   0.848   8.083   6.334
 3935SOL    HW223837   0.754   8.089   6.200
 3936SOL     OW23838   3.850   5.138   1.082
 3936SOL    HW123839   3.861   5.042   1.057
 3936SOL    HW223840   3.754   5.163   1.080
 3937SOL     OW23841   7.401   6.704   1.395
 3937SOL    HW123842   7.389   6.725   1.492
 3937SOL    HW223843   7.470   6.633   1.384
 3938SOL     OW23844   7.532   1.298   5.809
 3938SOL    HW123845   7.440   1.270   5.782
 3938SOL    HW223846   7.533   1.396   5.827
 3939SOL     OW23847   5.629   4.818   6.452
 3939SOL    HW123848   5.716   4.861   6.475
 3939SOL    HW223849   5.602   4.845   6.360
 3940SOL     OW23850   3.238   5.215   0.762
 3940SOL    HW123851   3.263   5.293   0.819
 3940SOL    HW223852   3.238   5.131   0.816
 3941SOL     OW23853   0.794   8.138   4.806
 3941SOL    HW123854   0.738   8.056   4.796
 3941SOL    HW223855   0.749   8.214   4.759
 3942SOL     OW23856   0.668   5.038   6.697
 3942SOL    HW123857   0.585   5.092   6.690
 3942SOL    HW223858   0.745   5.097   6.723
 3943SOL     OW23859   4.593   6.877   6.009
 3943SOL    HW123860   4.518   6.834   5.959
 3943SOL    HW223861   4.561   6.964   6.048
 3944SOL     OW23862   1.942   5.996   6.083
 3944SOL    HW123863   1.929   6.081   6.032
 3944SOL    HW223864   1.852   5.961   6.113
 3945SOL     OW23865   3.055   3.968   5.762
 3945SOL    HW123866   3.050   3.982   5.861
 3945SOL    HW223867   3.100   4.046   5.720
 3946SOL     OW23868   8.700   6.836   5.366
 3946SOL    HW123869   8.792   6.799   5.352
 3946SOL    HW223870   8.675   6.894   5.289
 3947SOL     OW23871   4.106   0.160   5.020
 3947SOL    HW123872   4.026   0.174   4.962
 3947SOL    HW223873   4.185   0.137   4.963
 3948SOL     OW23874   5.332   6.129   1.000
 3948SOL    HW123875   5.253   6.186   1.022
 3948SOL    HW223876   5.411   6.159   1.054
 3949SOL     OW23877   6.263   5.689   1.848
 3949SOL    HW123878   6.283   5.787   1.849
 3949SOL    HW223879   6.221   5.662   1.934
 3950SOL     OW23880   2.747   5.187   6.767
 3950SOL    HW123881   2.706   5.243   6.695
 3950SOL    HW223882   2.838   5.224   6.789
 3951SOL     OW23883   3.623   5.180   1.822
 3951SOL    HW123884   3.529   5.182   1.857
 3951SOL    HW223885   3.681   5.127   1.883
 3952SOL     OW23886   1.038   2.857   6.662
 3952SOL    HW123887   0.939   2.844   6.671
 3952SOL    HW223888   1.079   2.772   6.629
 3953SOL     OW23889   2.487   0.578   6.903
 3953SOL    HW123890   2.397   0.612   6.929
 3953SOL    HW223891   2.546   0.576   6.984
 3954SOL     OW23892   4.345   4.426   0.512
 3954SOL    HW123893   4.321   4.503   0.452
 3954SOL    HW223894   4.367   4.346   0.456
 3955SOL     OW23895   3.007   2.573   1.300
 3955SOL    HW123896   2.922   2.576   1.353
 3955SOL    HW223897   3.063   2.653   1.323
 3956SOL     OW23898   8.280   8.007   1.102
 3956SOL    HW123899   8.325   8.023   1.190
 3956SOL    HW223900   8.193   7.959   1.116
 3957SOL     OW23901   6.684   2.058   5.629
 3957SOL    HW123902   6.764   2.087   5.576
 3957SOL    HW223903   6.656   1.967   5.599
 3958SOL     OW23904   8.257   7.185   0.257
 3958SOL    HW123905   8.315   7.266   0.247
 3958SOL    HW223906   8.279   7.139   0.343
 3959SOL     OW23907   5.791   0.370   6.424
 3959SOL    HW123908   5.788   0.435   6.499
 3959SOL    HW223909   5.749   0.284   6.453
 3960SOL     OW23910   1.638   6.576   6.057
 3960SOL    HW123911   1.705   6.504   6.075
 3960SOL    HW223912   1.577   6.585   6.135
 3961SOL     OW23913   6.084   8.094   6.389
 3961SOL    HW123914   6.035   8.146   6.319
 3961SOL    HW223915   6.091   8.150   6.472
 3962SOL     OW23916   7.388   6.470   5.846
 3962SOL    HW123917   7.427   6.562   5.860
 3962SOL    HW223918   7.322   6.451   5.918
 3963SOL     OW23919   4.149   6.392   5.545
 3963SOL    HW123920   4.128   6.405   5.448
 3963SOL    HW223921   4.207   6.311   5.555
 3964SOL     OW23922   6.466   7.062   0.604
 3964SOL    HW123923   6.514   7.118   0.672
 3964SOL    HW223924   6.532   7.030   0.536
 3965SOL     OW23925   1.460   5.369   5.660
 3965SOL    HW123926   1.439   5.389   5.756
 3965SOL    HW223927   1.461   5.455   5.608
 3966SOL     OW23928   2.658   7.330   0.371
 3966SOL    HW123929   2.694   7.361   0.458
 3966SOL    HW223930   2.695   7.240   0.350
 3967SOL     OW23931   2.864   7.158   2.291
 3967SOL    HW123932   2.846   7.206   2.377
 3967SOL    HW223933   2.835   7.215   2.214
 3968SOL     OW23934   5.203   7.052   0.358
 3968SOL    HW123935   5.193   7.150   0.343
 3968SOL    HW223936   5.280   7.017   0.304
 3969SOL     OW23937   5.960   0.792   6.420
 3969SOL    HW123938   5.977   0.886   6.451
 3969SOL    HW223939   6.002   0.778   6.331
 3970SOL     OW23940   5.187   0.009   5.483
 3970SOL    HW123941   5.275   0.055   5.474
 3970SOL    HW223942   5.118   0.058   5.429
 3971SOL     OW23943   1.414   4.731   5.747
 3971SOL    HW123944   1.476   4.738   5.825
 3971SOL    HW223945   1.422   4.640   5.706
 3972SOL     OW23946   1.759   5.886   5.160
 3972SOL    HW123947   1.745   5.788   5.151
 3972SOL    HW223948   1.809   5.920   5.081
 3973SOL     OW23949   8.468   8.226   5.740
 3973SOL    HW123950   8.522   8.228   5.824
 3973SOL    HW223951   8.513   8.283   5.671
 3974SOL     OW23952   4.437   8.285   5.952
 3974SOL    HW123953   4.363   8.272   5.885
 3974SOL    HW223954   4.492   8.365   5.926
 3975SOL     OW23955   8.268   4.532   6.596
 3975SOL    HW123956   8.290   4.438   6.572
 3975SOL    HW223957   8.205   4.533   6.674
 3976SOL     OW23958   4.558   5.365   6.817
 3976SOL    HW123959   4.589   5.299   6.886
 3976SOL    HW223960   4.627   5.371   6.744
 3977SOL     OW23961   2.422   2.182   0.838
 3977SOL    HW123962   2.488   2.108   0.846
 3977SOL    HW223963   2.333   2.150   0.871
 3978SOL     OW23964   2.033   1.503   6.010
 3978SOL    HW123965   1.966   1.431   6.028
 3978SOL    HW223966   2.123   1.462   6.000
 3979SOL     OW23967   5.657   6.248   6.290
 3979SOL    HW123968   5.621   6.331   6.247
 3979SOL    HW223969   5.750   6.231   6.259
 3980SOL     OW23970   7.382   8.192   5.087
 3980SOL    HW123971   7.431   8.105   5.097
 3980SOL    HW223972   7.291   8.184   5.128
 3981SOL     OW23973   2.414   8.398   0.316
 3981SOL    HW123974   2.341   8.404   0.248
 3981SOL    HW223975   2.376   8.414   0.407
 3982SOL     OW23976   8.273   1.176   6.614
 3982SOL    HW123977   8.270   1.133   6.705
 3982SOL    HW223978   8.194   1.145   6.561
 3983SOL     OW23979   0.870   0.450   5.502
 3983SOL    HW123980   0.776   0.434   5.474
 3983SOL    HW223981   0.877   0.541   5.545
 3984SOL     OW23982   3.834   4.226   6.193
 3984SOL    HW123983   3.922   4.228   6.241
 3984SOL    HW223984   3.826   4.139   6.144
 3985SOL     OW23985   2.658   3.025   6.107
 3985SOL    HW123986   2.682   2.938   6.151
 3985SOL    HW223987   2.563   3.022   6.076
 3986SOL     OW23988   3.686   3.059   1.857
 3986SOL    HW123989   3.745   2.994   1.810
 3986SOL    HW223990   3.664   3.025   1.948
 3987SOL     OW23991   3.062   4.769   1.048
 3987SOL    HW123992   3.085   4.716   0.966
 3987SOL    HW223993   3.110   4.731   1.127
 3988SOL     OW23994   2.177   6.243   5.764
 3988SOL    HW123995   2.266   6.202   5.744
 3988SOL    HW223996   2.178   6.340   5.739
 3989SOL     OW23997   8.768   3.940   6.222
 3989SOL    HW123998   8.778   3.872   6.149
 3989SOL    HW223999   8.679   3.930   6.265
 3990SOL     OW24000   1.939   6.206   5.895
 3990SOL    HW124001   1.891   6.266   5.831
 3990SOL    HW224002   2.031   6.188   5.860
 3991SOL     OW24003   6.198   6.297   1.061
 3991SOL    HW124004   6.129   6.341   1.004
 3991SOL    HW224005   6.171   6.203   1.080
 3992SOL     OW24006   2.929   2.002   1.007
 3992SOL    HW124007   3.027   1.985   0.997
 3992SOL    HW224008   2.914   2.095   1.040
 3993SOL     OW24009   8.002   2.404   2.233
 3993SOL    HW124010   7.937   2.413   2.308
 3993SOL    HW224011   8.095   2.413   2.268
 3994SOL     OW24012   3.203   2.870   1.000
 3994SOL    HW124013   3.124   2.931   0.996
 3994SOL    HW224014   3.200   2.816   1.084
 3995SOL     OW24015   6.217   6.359   5.967
 3995SOL    HW124016   6.277   6.374   5.888
 3995SOL    HW224017   6.161   6.277   5.952
 3996SOL     OW24018   2.329   4.337   6.394
 3996SOL    HW124019   2.282   4.412   6.347
 3996SOL    HW224020   2.306   4.250   6.349
 3997SOL     OW24021   4.408   5.410   0.977
 3997SOL    HW124022   4.318   5.415   1.020
 3997SOL    HW224023   4.401   5.362   0.889
 3998SOL     OW24024   1.968   5.205   5.823
 3998SOL    HW124025   1.925   5.229   5.737
 3998SOL    HW224026   1.998   5.109   5.821
 3999SOL     OW24027   0.856   5.676   0.947
 3999SOL    HW124028   0.929   5.629   0.997
 3999SOL    HW224029   0.781   5.697   1.009
 4000SOL     OW24030   4.493   1.065   6.197
 4000SOL    HW124031   4.512   1.104   6.287
 4000SOL    HW224032   4.505   0.965   6.200
 4001SOL     OW24033   8.569   5.936   5.717
 4001SOL    HW124034   8.473   5.934   5.743
 4001SOL    HW224035   8.589   5.859   5.656
 4002SOL     OW24036   2.693   1.193   0.511
 4002SOL    HW124037   2.614   1.245   0.542
 4002SOL    HW224038   2.772   1.215   0.568
 4003SOL     OW24039   8.910   2.696   5.312
 4003SOL    HW124040   9.005   2.683   5.339
 4003SOL    HW224041   8.874   2.612   5.273
 4004SOL     OW24042   5.500   8.377   5.781
 4004SOL    HW124043   5.401   8.383   5.769
 4004SOL    HW224044   5.545   8.450   5.730
 4005SOL     OW24045   0.306   3.647   0.692
 4005SOL    HW124046   0.221   3.700   0.694
 4005SOL    HW224047   0.320   3.604   0.781
 4006SOL     OW24048   2.421   4.381   1.742
 4006SOL    HW124049   2.442   4.461   1.686
 4006SOL    HW224050   2.492   4.311   1.729
 4007SOL     OW24051   5.487   3.185   6.622
 4007SOL    HW124052   5.464   3.251   6.551
 4007SOL    HW224053   5.403   3.142   6.655
 4008SOL     OW24054   1.040   4.644   6.051
 4008SOL    HW124055   1.049   4.586   5.970
 4008SOL    HW224056   1.124   4.698   6.063
 4009SOL     OW24057   4.366   2.119   5.481
 4009SOL    HW124058   4.451   2.133   5.430
 4009SOL    HW224059   4.386   2.112   5.578
 4010SOL     OW24060   5.006   2.996   6.470
 4010SOL    HW124061   5.079   2.953   6.418
 4010SOL    HW224062   5.035   3.087   6.500
 4011SOL     OW24063   2.433   2.048   1.169
 4011SOL    HW124064   2.519   2.050   1.219
 4011SOL    HW224065   2.415   2.138   1.129
 4012SOL     OW24066   4.304   7.613   0.748
 4012SOL    HW124067   4.318   7.537   0.812
 4012SOL    HW224068   4.381   7.676   0.755
 4013SOL     OW24069   7.572   0.714   5.809
 4013SOL    HW124070   7.509   0.761   5.747
 4013SOL    HW224071   7.665   0.748   5.793
 4014SOL     OW24072   8.499   0.234   6.749
 4014SOL    HW124073   8.400   0.249   6.739
 4014SOL    HW224074   8.515   0.147   6.795
 4015SOL     OW24075   3.131   4.790   6.144
 4015SOL    HW124076   3.080   4.857   6.199
 4015SOL    HW224077   3.072   4.758   6.069
 4016SOL     OW24078   4.935   2.157   5.896
 4016SOL    HW124079   4.951   2.111   5.984
 4016SOL    HW224080   4.979   2.247   5.898
 4017SOL     OW24081   2.175   5.869   1.247
 4017SOL    HW124082   2.115   5.792   1.224
 4017SOL    HW224083   2.256   5.835   1.294
 4018SOL     OW24084   2.336   0.439   1.370
 4018SOL    HW124085   2.318   0.466   1.465
 4018SOL    HW224086   2.341   0.521   1.313
 4019SOL     OW24087   3.504   3.247   1.484
 4019SOL    HW124088   3.546   3.241   1.575
 4019SOL    HW224089   3.522   3.163   1.434
 4020SOL     OW24090   4.936   7.630   6.189
 4020SOL    HW124091   4.973   7.714   6.230
 4020SOL    HW224092   4.989   7.552   6.221
 4021SOL     OW24093   5.611   8.360   1.963
 4021SOL    HW124094   5.587   8.370   1.867
 4021SOL    HW224095   5.531   8.379   2.020
 4022SOL     OW24096   3.289   6.721   5.075
 4022SOL    HW124097   3.336   6.717   5.163
 4022SOL    HW224098   3.316   6.804   5.027
 4023SOL     OW24099   3.883   0.885   0.445
 4023SOL    HW124100   3.836   0.854   0.363
 4023SOL    HW224101   3.883   0.985   0.447
 4024SOL     OW24102   2.235   8.041   5.941
 4024SOL    HW124103   2.304   8.112   5.956
 4024SOL    HW224104   2.144   8.083   5.941
 4025SOL     OW24105   1.710   2.655   0.515
 4025SOL    HW124106   1.746   2.745   0.539
 4025SOL    HW224107   1.773   2.585   0.547
 4026SOL     OW24108   2.306   7.475   1.242
 4026SOL    HW124109   2.234   7.409   1.221
 4026SOL    HW224110   2.334   7.523   1.159
 4027SOL     OW24111   3.841   5.513   1.760
 4027SOL    HW124112   3.772   5.575   1.721
 4027SOL    HW224113   3.814   5.487   1.852
 4028SOL     OW24114   1.875   8.337   6.671
 4028SOL    HW124115   1.931   8.372   6.596
 4028SOL    HW224116   1.882   8.398   6.749
 4029SOL     OW24117   3.781  -0.006   1.860
 4029SOL    HW124118   3.799   0.006   1.762
 4029SOL    HW224119   3.786  -0.103   1.883
 4030SOL     OW24120   4.751   5.554   6.934
 4030SOL    HW124121   4.840   5.509   6.944
 4030SOL    HW224122   4.685   5.488   6.897
 4031SOL     OW24123   6.938   0.835   6.652
 4031SOL    HW124124   6.846   0.870   6.635
 4031SOL    HW224125   6.933   0.757   6.714
 4032SOL     OW24126   8.554   7.070   5.856
 4032SOL    HW124127   8.505   7.143   5.808
 4032SOL    HW224128   8.590   7.005   5.790
 4033SOL     OW24129   7.192   3.927   0.576
 4033SOL    HW124130   7.165   3.837   0.611
 4033SOL    HW224131   7.177   3.931   0.478
 4034SOL     OW24132   4.312   4.850   6.846
 4034SOL    HW124133   4.269   4.811   6.928
 4034SOL    HW224134   4.260   4.823   6.765
 4035SOL     OW24135   2.534   0.269   5.926
 4035SOL    HW124136   2.632   0.275   5.947
 4035SOL    HW224137   2.487   0.220   6.000
 4036SOL     OW24138   7.529   6.613   0.586
 4036SOL    HW124139   7.466   6.655   0.650
 4036SOL    HW224140   7.602   6.566   0.636
 4037SOL     OW24141   5.481   5.266   0.871
 4037SOL    HW124142   5.461   5.322   0.791
 4037SOL    HW224143   5.417   5.189   0.876
 4038SOL     OW24144   8.388   0.837   5.317
 4038SOL    HW124145   8.405   0.872   5.225
 4038SOL    HW224146   8.297   0.796   5.321
 4039SOL     OW24147   3.405   4.774   1.051
 4039SOL    HW124148   3.465   4.766   0.972
 4039SOL    HW224149   3.459   4.791   1.133
 4040SOL     OW24150   8.725   5.743   0.763
 4040SOL    HW124151   8.766   5.683   0.832
 4040SOL    HW224152   8.626   5.745   0.774
 4041SOL     OW24153   0.982   4.433   6.929
 4041SOL    HW124154   0.954   4.364   6.996
 4041SOL    HW224155   0.973   4.524   6.969
 4042SOL     OW24156   8.447   7.472   5.389
 4042SOL    HW124157   8.544   7.456   5.376
 4042SOL    HW224158   8.416   7.542   5.325
 4043SOL     OW24159   3.378   1.727   0.899
 4043SOL    HW124160   3.474   1.735   0.873
 4043SOL    HW224161   3.348   1.633   0.886
 4044SOL     OW24162   1.600   1.694   6.010
 4044SOL    HW124163   1.500   1.685   6.006
 4044SOL    HW224164   1.638   1.622   6.067
 4045SOL     OW24165   8.663   6.653   5.706
 4045SOL    HW124166   8.652   6.746   5.669
 4045SOL    HW224167   8.754   6.644   5.746
 4046SOL     OW24168   2.372   1.138   6.162
 4046SOL    HW124169   2.458   1.149   6.113
 4046SOL    HW224170   2.390   1.099   6.252
 4047SOL     OW24171   5.327   5.875   0.893
 4047SOL    HW124172   5.378   5.831   0.819
 4047SOL    HW224173   5.332   5.974   0.882
 4048SOL     OW24174   7.637   2.770   1.423
 4048SOL    HW124175   7.688   2.854   1.441
 4048SOL    HW224176   7.607   2.729   1.509
 4049SOL     OW24177   5.339   5.063   6.803
 4049SOL    HW124178   5.429   5.045   6.762
 4049SOL    HW224179   5.293   4.976   6.821
 4050SOL     OW24180   0.586   4.333   6.425
 4050SOL    HW124181   0.680   4.360   6.448
 4050SOL    HW224182   0.556   4.260   6.487
 4051SOL     OW24183   5.861   1.018   6.794
 4051SOL    HW124184   5.959   1.002   6.809
 4051SOL    HW224185   5.842   1.116   6.799
 4052SOL     OW24186   3.242   1.457   5.416
 4052SOL    HW124187   3.296   1.422   5.340
 4052SOL    HW224188   3.259   1.555   5.427
 4053SOL     OW24189   2.757   2.806   0.557
 4053SOL    HW124190   2.745   2.831   0.461
 4053SOL    HW224191   2.854   2.816   0.582
 4054SOL     OW24192   2.606   2.381   1.945
 4054SOL    HW124193   2.696   2.398   1.985
 4054SOL    HW224194   2.547   2.461   1.960
 4055SOL     OW24195   6.905   5.137   6.314
 4055SOL    HW124196   6.890   5.230   6.281
 4055SOL    HW224197   6.997   5.128   6.351
 4056SOL     OW24198   1.322   8.187   6.499
 4056SOL    HW124199   1.244   8.215   6.554
 4056SOL    HW224200   1.336   8.088   6.507
 4057SOL     OW24201   4.901   4.823   6.651
 4057SOL    HW124202   4.905   4.805   6.750
 4057SOL    HW224203   4.938   4.914   6.633
 4058SOL     OW24204   2.449   1.626   0.643
 4058SOL    HW124205   2.429   1.717   0.608
 4058SOL    HW224206   2.379   1.599   0.708
 4059SOL     OW24207   7.392   1.982   6.623
 4059SOL    HW124208   7.303   2.015   6.652
 4059SOL    HW224209   7.427   2.041   6.550
 4060SOL     OW24210   9.578   2.423   0.669
 4060SOL    HW124211   9.496   2.467   0.633
 4060SOL    HW224212   9.560   2.388   0.761
 4061SOL     OW24213   1.294   1.465   5.598
 4061SOL    HW124214   1.235   1.420   5.532
 4061SOL    HW224215   1.263   1.443   5.691
 4062SOL     OW24216   3.917   0.259   1.511
 4062SOL    HW124217   3.882   0.325   1.577
 4062SOL    HW224218   3.862   0.175   1.514
 4063SOL     OW24219   7.946   1.561   1.186
 4063SOL    HW124220   7.948   1.548   1.087
 4063SOL    HW224221   7.904   1.480   1.229
 4064SOL     OW24222   3.273   5.849   1.032
 4064SOL    HW124223   3.302   5.938   0.996
 4064SOL    HW224224   3.178   5.832   1.005
 4065SOL     OW24225   8.646   7.408   6.063
 4065SOL    HW124226   8.684   7.365   5.981
 4065SOL    HW224227   8.709   7.395   6.140
 4066SOL     OW24228   4.486   1.135   2.275
 4066SOL    HW124229   4.535   1.132   2.363
 4066SOL    HW224230   4.418   1.062   2.273
 4067SOL     OW24231   3.807   2.852   6.141
 4067SOL    HW124232   3.848   2.871   6.052
 4067SOL    HW224233   3.730   2.914   6.156
 4068SOL     OW24234   5.296   3.203   6.921
 4068SOL    HW124235   5.304   3.144   6.841
 4068SOL    HW224236   5.387   3.229   6.953
 4069SOL     OW24237   4.517   5.627   6.453
 4069SOL    HW124238   4.429   5.597   6.416
 4069SOL    HW224239   4.581   5.643   6.377
 4070SOL     OW24240   1.895   2.214   1.841
 4070SOL    HW124241   1.798   2.206   1.819
 4070SOL    HW224242   1.906   2.216   1.940
 4071SOL     OW24243   8.158   7.556   5.735
 4071SOL    HW124244   8.179   7.461   5.760
 4071SOL    HW224245   8.207   7.580   5.650
 4072SOL     OW24246   4.646   0.263   0.935
 4072SOL    HW124247   4.558   0.220   0.953
 4072SOL    HW224248   4.701   0.205   0.876
 4073SOL     OW24249   0.718   4.845   6.086
 4073SOL    HW124250   0.787   4.880   6.023
 4073SOL    HW224251   0.643   4.804   6.034
 4074SOL     OW24252   8.643   1.063   5.231
 4074SOL    HW124253   8.622   0.997   5.159
 4074SOL    HW224254   8.672   1.149   5.189
 4075SOL     OW24255   4.895   8.429   6.617
 4075SOL    HW124256   4.953   8.509   6.601
 4075SOL    HW224257   4.847   8.406   6.532
 4076SOL     OW24258   0.720   4.362   1.632
 4076SOL    HW124259   0.761   4.305   1.703
 4076SOL    HW224260   0.627   4.387   1.658
 4077SOL     OW24261   6.590   3.522   6.302
 4077SOL    HW124262   6.619   3.567   6.387
 4077SOL    HW224263   6.549   3.590   6.241
 4078SOL     OW24264   2.939   0.197   4.949
 4078SOL    HW124265   2.874   0.148   4.891
 4078SOL    HW224266   3.015   0.137   4.973
 4079SOL     OW24267   0.639   2.287   0.845
 4079SOL    HW124268   0.642   2.187   0.835
 4079SOL    HW224269   0.702   2.315   0.918
 4080SOL     OW24270   2.527   5.410   1.399
 4080SOL    HW124271   2.493   5.485   1.457
 4080SOL    HW224272   2.619   5.431   1.368
 4081SOL     OW24273   4.336   3.428   1.367
 4081SOL    HW124274   4.289   3.370   1.433
 4081SOL    HW224275   4.310   3.400   1.274
 4082SOL     OW24276   1.537   5.285   1.012
 4082SOL    HW124277   1.568   5.339   0.934
 4082SOL    HW224278   1.499   5.198   0.980
 4083SOL     OW24279   5.192   4.422   1.883
 4083SOL    HW124280   5.247   4.394   1.962
 4083SOL    HW224281   5.158   4.341   1.836
 4084SOL     OW24282   3.169   0.242   0.315
 4084SOL    HW124283   3.133   0.148   0.310
 4084SOL    HW224284   3.151   0.279   0.406
 4085SOL     OW24285   6.197   3.180   1.519
 4085SOL    HW124286   6.166   3.275   1.529
 4085SOL    HW224287   6.138   3.120   1.572
 4086SOL     OW24288   0.908   6.721   6.138
 4086SOL    HW124289   0.939   6.737   6.044
 4086SOL    HW224290   0.881   6.625   6.148
 4087SOL     OW24291   2.442   8.090   1.832
 4087SOL    HW124292   2.504   8.028   1.881
 4087SOL    HW224293   2.400   8.153   1.898
 4088SOL     OW24294   3.289   5.001   1.526
 4088SOL    HW124295   3.286   4.919   1.469
 4088SOL    HW224296   3.373   5.053   1.506
 4089SOL     OW24297   2.629   6.577   5.791
 4089SOL    HW124298   2.624   6.649   5.860
 4089SOL    HW224299   2.540   6.531   5.784
 4090SOL     OW24300   9.053   0.172   6.080
 4090SOL    HW124301   9.084   0.170   6.175
 4090SOL    HW224302   9.095   0.250   6.034
 4091SOL     OW24303   5.809   4.778   6.708
 4091SOL    HW124304   5.736   4.737   6.763
 4091SOL    HW224305   5.897   4.763   6.752
 4092SOL     OW24306   8.806   7.501   5.731
 4092SOL    HW124307   8.710   7.530   5.735
 4092SOL    HW224308   8.813   7.405   5.758
 4093SOL     OW24309   2.106   3.758   6.543
 4093SOL    HW124310   2.132   3.841   6.492
 4093SOL    HW224311   2.181   3.732   6.604
 4094SOL     OW24312   1.762   1.120   5.362
 4094SOL    HW124313   1.811   1.115   5.275
 4094SOL    HW224314   1.670   1.083   5.351
 4095SOL     OW24315   5.944   0.413   0.919
 4095SOL    HW124316   5.889   0.334   0.892
 4095SOL    HW224317   5.908   0.495   0.874
 4096SOL     OW24318   8.122   6.044   1.321
 4096SOL    HW124319   8.034   6.067   1.281
 4096SOL    HW224320   8.112   5.964   1.381
 4097SOL     OW24321   3.249   6.255   1.930
 4097SOL    HW124322   3.252   6.215   2.022
 4097SOL    HW224323   3.270   6.353   1.936
 4098SOL     OW24324   0.452   4.305   6.906
 4098SOL    HW124325   0.384   4.250   6.857
 4098SOL    HW224326   0.535   4.251   6.919
 4099SOL     OW24327   5.092   3.370   6.833
 4099SOL    HW124328   5.157   3.299   6.859
 4099SOL    HW224329   5.065   3.423   6.914
 4100SOL     OW24330   3.560   7.896   1.664
 4100SOL    HW124331   3.613   7.977   1.690
 4100SOL    HW224332   3.492   7.876   1.734
 4101SOL     OW24333   6.845   2.234   6.936
 4101SOL    HW124334   6.879   2.248   7.029
 4101SOL    HW224335   6.920   2.208   6.876
 4102SOL     OW24336   8.848   6.733   6.366
 4102SOL    HW124337   8.876   6.764   6.275
 4102SOL    HW224338   8.748   6.736   6.373
 4103SOL     OW24339   9.218   4.089   6.811
 4103SOL    HW124340   9.212   4.138   6.724
 4103SOL    HW224341   9.314   4.082   6.839
 4104SOL     OW24342   5.196   1.109   1.147
 4104SOL    HW124343   5.197   1.014   1.179
 4104SOL    HW224344   5.133   1.117   1.069
 4105SOL     OW24345   1.720   7.582   1.266
 4105SOL    HW124346   1.809   7.539   1.255
 4105SOL    HW224347   1.730   7.671   1.309
 4106SOL     OW24348   8.820   5.577   0.954
 4106SOL    HW124349   8.893   5.543   0.895
 4106SOL    HW224350   8.855   5.591   1.046
 4107SOL     OW24351   4.851   0.752   0.861
 4107SOL    HW124352   4.789   0.812   0.811
 4107SOL    HW224353   4.804   0.715   0.942
 4108SOL     OW24354   7.590   4.389   0.663
 4108SOL    HW124355   7.607   4.293   0.641
 4108SOL    HW224356   7.673   4.442   0.649
 4109SOL     OW24357   8.402   5.125   0.814
 4109SOL    HW124358   8.490   5.107   0.858
 4109SOL    HW224359   8.415   5.187   0.737
 4110SOL     OW24360   4.181   8.130   0.282
 4110SOL    HW124361   4.257   8.070   0.308
 4110SOL    HW224362   4.211   8.188   0.206
 4111SOL     OW24363   0.365   3.249   0.677
 4111SOL    HW124364   0.310   3.174   0.640
 4111SOL    HW224365   0.340   3.265   0.773
 4112SOL     OW24366   7.237   6.381   6.651
 4112SOL    HW124367   7.171   6.308   6.634
 4112SOL    HW224368   7.307   6.380   6.579
 4113SOL     OW24369   4.705   5.765   2.044
 4113SOL    HW124370   4.802   5.788   2.045
 4113SOL    HW224371   4.686   5.697   2.115
 4114SOL     OW24372   1.007   6.686   2.122
 4114SOL    HW124373   1.092   6.715   2.077
 4114SOL    HW224374   0.977   6.599   2.083
 4115SOL     OW24375   6.246   3.362   6.478
 4115SOL    HW124376   6.300   3.324   6.403
 4115SOL    HW224377   6.306   3.393   6.551
 4116SOL     OW24378   8.077   8.325   5.552
 4116SOL    HW124379   8.152   8.305   5.489
 4116SOL    HW224380   7.996   8.353   5.500
 4117SOL     OW24381   7.422   0.242   0.619
 4117SOL    HW124382   7.425   0.340   0.640
 4117SOL    HW224383   7.439   0.190   0.702
 4118SOL     OW24384   8.939   5.126   1.070
 4118SOL    HW124385   8.951   5.211   1.120
 4118SOL    HW224386   8.867   5.072   1.113
 4119SOL     OW24387   7.237   3.729   5.718
 4119SOL    HW124388   7.166   3.693   5.779
 4119SOL    HW224389   7.240   3.674   5.635
 4120SOL     OW24390   8.201   3.878   1.375
 4120SOL    HW124391   8.262   3.803   1.400
 4120SOL    HW224392   8.108   3.858   1.407
 4121SOL     OW24393   5.477   5.502   0.323
 4121SOL    HW124394   5.466   5.433   0.393
 4121SOL    HW224395   5.457   5.592   0.361
 4122SOL     OW24396   4.065   5.461   0.559
 4122SOL    HW124397   4.132   5.388   0.539
 4122SOL    HW224398   4.015   5.484   0.476
 4123SOL     OW24399   5.977   8.281   6.931
 4123SOL    HW124400   5.987   8.349   6.858
 4123SOL    HW224401   6.058   8.222   6.932
 4124SOL     OW24402   7.547   1.107   6.863
 4124SOL    HW124403   7.513   1.158   6.784
 4124SOL    HW224404   7.495   1.023   6.874
 4125SOL     OW24405   3.285   2.541   0.391
 4125SOL    HW124406   3.274   2.638   0.368
 4125SOL    HW224407   3.206   2.490   0.358
 4126SOL     OW24408   6.796   1.607   6.265
 4126SOL    HW124409   6.720   1.621   6.328
 4126SOL    HW224410   6.771   1.539   6.196
 4127SOL     OW24411   1.581   6.616   6.669
 4127SOL    HW124412   1.523   6.553   6.617
 4127SOL    HW224413   1.662   6.638   6.615
 4128SOL     OW24414   0.181   1.909   6.201
 4128SOL    HW124415   0.103   1.972   6.209
 4128SOL    HW224416   0.174   1.859   6.114
 4129SOL     OW24417   2.569   1.231   0.836
 4129SOL    HW124418   2.644   1.262   0.778
 4129SOL    HW224419   2.601   1.225   0.931
 4130SOL     OW24420   6.949   6.627   5.679
 4130SOL    HW124421   6.906   6.692   5.617
 4130SOL    HW224422   7.048   6.641   5.680
 4131SOL     OW24423   5.504   4.626   2.128
 4131SOL    HW124424   5.461   4.716   2.120
 4131SOL    HW224425   5.439   4.555   2.098
 4132SOL     OW24426   4.217   6.525   6.808
 4132SOL    HW124427   4.242   6.540   6.712
 4132SOL    HW224428   4.272   6.450   6.845
 4133SOL     OW24429   3.593   6.557   0.422
 4133SOL    HW124430   3.642   6.640   0.450
 4133SOL    HW224431   3.523   6.580   0.354
 4134SOL     OW24432   6.744   4.285   6.908
 4134SOL    HW124433   6.834   4.327   6.901
 4134SOL    HW224434   6.674   4.356   6.908
 4135SOL     OW24435   7.294  -0.063   5.519
 4135SOL    HW124436   7.199  -0.081   5.495
 4135SOL    HW224437   7.350  -0.061   5.436
 4136SOL     OW24438   1.010   6.064   6.738
 4136SOL    HW124439   1.036   5.969   6.752
 4136SOL    HW224440   0.933   6.069   6.674
 4137SOL     OW24441   3.525   0.806   1.398
 4137SOL    HW124442   3.493   0.870   1.328
 4137SOL    HW224443   3.454   0.739   1.417
 4138SOL     OW24444   6.130   7.288   5.936
 4138SOL    HW124445   6.176   7.215   5.884
 4138SOL    HW224446   6.032   7.284   5.917
 4139SOL     OW24447   4.418   1.012   5.774
 4139SOL    HW124448   4.359   1.006   5.855
 4139SOL    HW224449   4.403   0.933   5.715
 4140SOL     OW24450   1.196   5.216   6.122
 4140SOL    HW124451   1.209   5.297   6.065
 4140SOL    HW224452   1.099   5.190   6.121
 4141SOL     OW24453   1.917   6.641   5.679
 4141SOL    HW124454   1.856   6.640   5.759
 4141SOL    HW224455   1.873   6.591   5.604
 4142SOL     OW24456   5.417   7.989   5.875
 4142SOL    HW124457   5.447   8.079   5.908
 4142SOL    HW224458   5.371   8.000   5.788
 4143SOL     OW24459   3.696   6.921   6.187
 4143SOL    HW124460   3.763   6.849   6.202
 4143SOL    HW224461   3.627   6.888   6.122
 4144SOL     OW24462   8.909   6.030   5.245
 4144SOL    HW124463   8.845   5.984   5.307
 4144SOL    HW224464   8.963   5.962   5.196
 4145SOL     OW24465   3.164   4.331   0.681
 4145SOL    HW124466   3.086   4.385   0.649
 4145SOL    HW224467   3.224   4.310   0.604
 4146SOL     OW24468   3.190   4.892   6.849
 4146SOL    HW124469   3.101   4.908   6.893
 4146SOL    HW224470   3.243   4.827   6.903
 4147SOL     OW24471   6.257   2.397   6.208
 4147SOL    HW124472   6.204   2.335   6.152
 4147SOL    HW224473   6.224   2.395   6.302
 4148SOL     OW24474   1.222   3.895   0.486
 4148SOL    HW124475   1.322   3.893   0.477
 4148SOL    HW224476   1.196   3.866   0.578
 4149SOL     OW24477   0.561   7.990   1.683
 4149SOL    HW124478   0.535   8.085   1.701
 4149SOL    HW224479   0.525   7.932   1.756
 4150SOL     OW24480   2.398   7.782   5.243
 4150SOL    HW124481   2.473   7.837   5.204
 4150SOL    HW224482   2.355   7.728   5.171
 4151SOL     OW24483   0.877   1.528   6.010
 4151SOL    HW124484   0.882   1.624   5.983
 4151SOL    HW224485   0.803   1.516   6.076
 4152SOL     OW24486   0.933   4.110   1.596
 4152SOL    HW124487   0.895   4.127   1.686
 4152SOL    HW224488   0.944   4.011   1.582
 4153SOL     OW24489   3.266   4.982   6.617
 4153SOL    HW124490   3.354   5.027   6.632
 4153SOL    HW224491   3.232   4.946   6.704
 4154SOL     OW24492   1.745   8.266   5.785
 4154SOL    HW124493   1.767   8.306   5.695
 4154SOL    HW224494   1.830   8.250   5.835
 4155SOL     OW24495   0.315   4.980   5.489
 4155SOL    HW124496   0.281   4.997   5.397
 4155SOL    HW224497   0.272   4.898   5.527
 4156SOL     OW24498   6.704   5.261   6.739
 4156SOL    HW124499   6.625   5.281   6.797
 4156SOL    HW224500   6.757   5.345   6.723
 4157SOL     OW24501   3.464   3.072   6.599
 4157SOL    HW124502   3.448   3.083   6.697
 4157SOL    HW224503   3.546   3.017   6.585
 4158SOL     OW24504   0.383   6.368   4.886
 4158SOL    HW124505   0.397   6.450   4.831
 4158SOL    HW224506   0.466   6.312   4.886
 4159SOL     OW24507   9.271   5.001   5.617
 4159SOL    HW124508   9.180   5.038   5.598
 4159SOL    HW224509   9.309   4.960   5.534
 4160SOL     OW24510   4.371   7.699   1.100
 4160SOL    HW124511   4.325   7.634   1.161
 4160SOL    HW224512   4.307   7.732   1.032
 4161SOL     OW24513   7.821   2.832   6.824
 4161SOL    HW124514   7.920   2.838   6.841
 4161SOL    HW224515   7.805   2.811   6.728
 4162SOL     OW24516   2.885   6.947   5.979
 4162SOL    HW124517   2.851   6.956   6.073
 4162SOL    HW224518   2.849   7.023   5.924
 4163SOL     OW24519   3.572   2.998   2.117
 4163SOL    HW124520   3.525   3.084   2.098
 4163SOL    HW224521   3.529   2.953   2.196
 4164SOL     OW24522   2.495   7.427   1.005
 4164SOL    HW124523   2.428   7.483   0.957
 4164SOL    HW224524   2.455   7.337   1.026
 4165SOL     OW24525   4.079   5.411   1.599
 4165SOL    HW124526   4.001   5.444   1.653
 4165SOL    HW224527   4.109   5.322   1.634
 4166SOL     OW24528   8.581   2.365   1.318
 4166SOL    HW124529   8.486   2.350   1.347
 4166SOL    HW224530   8.622   2.437   1.373
 4167SOL     OW24531   6.863   5.697   1.065
 4167SOL    HW124532   6.773   5.731   1.037
 4167SOL    HW224533   6.863   5.597   1.064
 4168SOL     OW24534   7.889   3.608   6.169
 4168SOL    HW124535   7.953   3.586   6.095
 4168SOL    HW224536   7.806   3.649   6.130
 4169SOL     OW24537   5.865   8.383   1.224
 4169SOL    HW124538   5.845   8.472   1.182
 4169SOL    HW224539   5.955   8.385   1.266
 4170SOL     OW24540   5.185   6.556   1.747
 4170SOL    HW124541   5.252   6.485   1.723
 4170SOL    HW224542   5.217   6.645   1.715
 4171SOL     OW24543   2.162   0.259   1.224
 4171SOL    HW124544   2.229   0.314   1.275
 4171SOL    HW224545   2.072   0.267   1.267
 4172SOL     OW24546   4.513   0.407   6.322
 4172SOL    HW124547   4.506   0.490   6.267
 4172SOL    HW224548   4.568   0.339   6.274
 4173SOL     OW24549   8.306   7.602   0.835
 4173SOL    HW124550   8.354   7.573   0.753
 4173SOL    HW224551   8.293   7.702   0.833
 4174SOL     OW24552   0.875   6.525   4.760
 4174SOL    HW124553   0.878   6.428   4.734
 4174SOL    HW224554   0.924   6.537   4.847
 4175SOL     OW24555   2.277   7.619   6.296
 4175SOL    HW124556   2.294   7.714   6.271
 4175SOL    HW224557   2.185   7.593   6.265
 4176SOL     OW24558   4.919   3.654   1.934
 4176SOL    HW124559   4.863   3.588   1.984
 4176SOL    HW224560   4.996   3.682   1.992
 4177SOL     OW24561   2.127   1.234   0.268
 4177SOL    HW124562   2.112   1.327   0.236
 4177SOL    HW224563   2.218   1.227   0.309
 4178SOL     OW24564   2.619   2.699   1.114
 4178SOL    HW124565   2.579   2.765   1.050
 4178SOL    HW224566   2.545   2.647   1.157
 4179SOL     OW24567   7.223   1.098   1.628
 4179SOL    HW124568   7.173   1.143   1.701
 4179SOL    HW224569   7.321   1.113   1.641
 4180SOL     OW24570   6.460   3.849   6.413
 4180SOL    HW124571   6.440   3.907   6.492
 4180SOL    HW224572   6.389   3.863   6.343
 4181SOL     OW24573   3.820   7.794   6.902
 4181SOL    HW124574   3.790   7.703   6.933
 4181SOL    HW224575   3.770   7.818   6.819
 4182SOL     OW24576   3.328   1.359   5.882
 4182SOL    HW124577   3.302   1.315   5.796
 4182SOL    HW224578   3.251   1.413   5.916
 4183SOL     OW24579   4.213   2.236   6.347
 4183SOL    HW124580   4.189   2.272   6.257
 4183SOL    HW224581   4.162   2.152   6.365
 4184SOL     OW24582   7.151   0.338   0.356
 4184SOL    HW124583   7.183   0.268   0.291
 4184SOL    HW224584   7.218   0.412   0.360
 4185SOL     OW24585   6.295   6.598   6.350
 4185SOL    HW124586   6.323   6.693   6.352
 4185SOL    HW224587   6.253   6.573   6.438
 4186SOL     OW24588   4.355   2.409   1.458
 4186SOL    HW124589   4.416   2.484   1.432
 4186SOL    HW224590   4.407   2.324   1.464
 4187SOL     OW24591   0.831   3.188   0.553
 4187SOL    HW124592   0.887   3.199   0.635
 4187SOL    HW224593   0.742   3.231   0.567
 4188SOL     OW24594   8.966   2.567   1.246
 4188SOL    HW124595   9.063   2.590   1.231
 4188SOL    HW224596   8.959   2.473   1.278
 4189SOL     OW24597   8.974   6.782   0.649
 4189SOL    HW124598   8.981   6.695   0.601
 4189SOL    HW224599   8.948   6.766   0.744
 4190SOL     OW24600   9.001   7.761   0.615
 4190SOL    HW124601   9.034   7.854   0.598
 4190SOL    HW224602   9.037   7.729   0.703
 4191SOL     OW24603   8.804   4.158   6.049
 4191SOL    HW124604   8.771   4.101   6.124
 4191SOL    HW224605   8.773   4.119   5.962
 4192SOL     OW24606   9.032   3.663   5.814
 4192SOL    HW124607   9.005   3.593   5.748
 4192SOL    HW224608   9.101   3.723   5.774
 4193SOL     OW24609   1.799   6.700   6.542
 4193SOL    HW124610   1.797   6.796   6.571
 4193SOL    HW224611   1.756   6.693   6.452
 4194SOL     OW24612   7.360   6.076   5.914
 4194SOL    HW124613   7.346   5.988   5.869
 4194SOL    HW224614   7.377   6.146   5.845
 4195SOL     OW24615   7.077   5.469   0.717
 4195SOL    HW124616   7.149   5.450   0.783
 4195SOL    HW224617   7.018   5.389   0.708
 4196SOL     OW24618   3.069   4.873   0.357
 4196SOL    HW124619   3.115   4.801   0.409
 4196SOL    HW224620   2.994   4.910   0.411
 4197SOL     OW24621   5.780   6.653   2.434
 4197SOL    HW124622   5.811   6.746   2.451
 4197SOL    HW224623   5.858   6.590   2.435
 4198SOL     OW24624   1.453   7.966   6.231
 4198SOL    HW124625   1.447   8.065   6.221
 4198SOL    HW224626   1.424   7.922   6.146
 4199SOL     OW24627   1.887   3.576   6.017
 4199SOL    HW124628   1.875   3.515   5.939
 4199SOL    HW224629   1.829   3.657   6.006
 4200SOL     OW24630   5.053   6.884   6.639
 4200SOL    HW124631   5.033   6.916   6.732
 4200SOL    HW224632   5.148   6.853   6.634
 4201SOL     OW24633   0.173   2.604   6.763
 4201SOL    HW124634   0.186   2.510   6.793
 4201SOL    HW224635   0.092   2.610   6.705
 4202SOL     OW24636   5.814   1.542   6.691
 4202SOL    HW124637   5.821   1.642   6.689
 4202SOL    HW224638   5.904   1.503   6.714
 4203SOL     OW24639   9.445   2.086   6.544
 4203SOL    HW124640   9.438   2.167   6.486
 4203SOL    HW224641   9.515   2.101   6.614
 4204SOL     OW24642   1.076   1.761   6.699
 4204SOL    HW124643   1.090   1.685   6.762
 4204SOL    HW224644   1.009   1.735   6.630
 4205SOL     OW24645   8.651   6.994   0.422
 4205SOL    HW124646   8.711   6.935   0.367
 4205SOL    HW224647   8.557   6.963   0.414
 4206SOL     OW24648   8.399   2.280   1.007
 4206SOL    HW124649   8.370   2.215   0.937
 4206SOL    HW224650   8.495   2.263   1.030
 4207SOL     OW24651   4.267   2.754   0.250
 4207SOL    HW124652   4.207   2.698   0.194
 4207SOL    HW224653   4.362   2.726   0.237
 4208SOL     OW24654   2.901   2.288   1.329
 4208SOL    HW124655   2.857   2.366   1.373
 4208SOL    HW224656   2.928   2.313   1.236
 4209SOL     OW24657   2.250   3.380   6.573
 4209SOL    HW124658   2.292   3.444   6.508
 4209SOL    HW224659   2.292   3.290   6.562
 4210SOL     OW24660   4.319   5.403   2.080
 4210SOL    HW124661   4.326   5.303   2.073
 4210SOL    HW224662   4.253   5.427   2.151
 4211SOL     OW24663   5.317   0.353   0.538
 4211SOL    HW124664   5.238   0.412   0.524
 4211SOL    HW224665   5.289   0.257   0.535
 4212SOL     OW24666   8.051   6.354   0.806
 4212SOL    HW124667   7.990   6.275   0.797
 4212SOL    HW224668   8.122   6.333   0.874
 4213SOL     OW24669   8.073   2.441   0.910
 4213SOL    HW124670   8.158   2.470   0.868
 4213SOL    HW224671   8.017   2.393   0.842
 4214SOL     OW24672   7.042   6.575   1.195
 4214SOL    HW124673   7.084   6.611   1.112
 4214SOL    HW224674   6.944   6.564   1.181
 4215SOL     OW24675   7.251   0.269   0.993
 4215SOL    HW124676   7.323   0.224   0.939
 4215SOL    HW224677   7.166   0.271   0.940
 4216SOL     OW24678   3.631   6.829   1.887
 4216SOL    HW124679   3.720   6.862   1.857
 4216SOL    HW224680   3.642   6.775   1.970
 4217SOL     OW24681   9.295   7.774   5.754
 4217SOL    HW124682   9.317   7.870   5.770
 4217SOL    HW224683   9.204   7.755   5.790
 4218SOL     OW24684   3.541   7.349   6.384
 4218SOL    HW124685   3.544   7.252   6.361
 4218SOL    HW224686   3.579   7.403   6.308
 4219SOL     OW24687   5.451   1.138   0.388
 4219SOL    HW124688   5.369   1.089   0.416
 4219SOL    HW224689   5.532   1.086   0.414
 4220SOL     OW24690   0.432   7.520   5.018
 4220SOL    HW124691   0.422   7.605   4.967
 4220SOL    HW224692   0.519   7.476   4.993
 4221SOL     OW24693   7.406   4.807   0.555
 4221SOL    HW124694   7.332   4.865   0.522
 4221SOL    HW224695   7.420   4.823   0.652
 4222SOL     OW24696   4.561   5.516   0.452
 4222SOL    HW124697   4.650   5.530   0.409
 4222SOL    HW224698   4.567   5.441   0.517
 4223SOL     OW24699   3.437   1.729   5.926
 4223SOL    HW124700   3.426   1.760   5.831
 4223SOL    HW224701   3.513   1.779   5.968
 4224SOL     OW24702   8.760   0.640   6.648
 4224SOL    HW124703   8.792   0.553   6.612
 4224SOL    HW224704   8.670   0.661   6.610
 4225SOL     OW24705   3.387   3.917   1.346
 4225SOL    HW124706   3.342   3.870   1.422
 4225SOL    HW224707   3.370   3.868   1.261
 4226SOL     OW24708   4.529   7.702   2.404
 4226SOL    HW124709   4.544   7.795   2.438
 4226SOL    HW224710   4.526   7.704   2.304
 4227SOL     OW24711   3.706   4.950   5.176
 4227SOL    HW124712   3.697   4.952   5.077
 4227SOL    HW224713   3.653   5.024   5.217
 4228SOL     OW24714   8.633   5.552   0.314
 4228SOL    HW124715   8.613   5.471   0.259
 4228SOL    HW224716   8.627   5.634   0.257
 4229SOL     OW24717   6.279   2.866   6.433
 4229SOL    HW124718   6.378   2.865   6.415
 4229SOL    HW224719   6.233   2.801   6.372
 4230SOL     OW24720   0.430   2.520   0.340
 4230SOL    HW124721   0.382   2.599   0.302
 4230SOL    HW224722   0.364   2.457   0.379
 4231SOL     OW24723   1.234   4.838   6.052
 4231SOL    HW124724   1.261   4.873   5.962
 4231SOL    HW224725   1.188   4.911   6.103
 4232SOL     OW24726   1.393   0.238   1.036
 4232SOL    HW124727   1.345   0.273   0.955
 4232SOL    HW224728   1.469   0.181   1.008
 4233SOL     OW24729   6.769   7.702   1.629
 4233SOL    HW124730   6.827   7.705   1.710
 4233SOL    HW224731   6.765   7.609   1.594
 4234SOL     OW24732   5.346   7.051   6.359
 4234SOL    HW124733   5.395   6.993   6.425
 4234SOL    HW224734   5.408   7.076   6.285
 4235SOL     OW24735   7.038   6.100   1.517
 4235SOL    HW124736   7.135   6.080   1.524
 4235SOL    HW224737   6.987   6.015   1.501
 4236SOL     OW24738   8.297   8.260   1.490
 4236SOL    HW124739   8.355   8.254   1.571
 4236SOL    HW224740   8.207   8.295   1.515
 4237SOL     OW24741   2.464   7.138   6.630
 4237SOL    HW124742   2.396   7.075   6.592
 4237SOL    HW224743   2.421   7.197   6.698
 4238SOL     OW24744   0.688   6.400   4.537
 4238SOL    HW124745   0.716   6.387   4.442
 4238SOL    HW224746   0.767   6.387   4.597
 4239SOL     OW24747   5.869   5.872   2.050
 4239SOL    HW124748   5.856   5.774   2.069
 4239SOL    HW224749   5.966   5.894   2.050
 4240SOL     OW24750   2.360   8.073   0.348
 4240SOL    HW124751   2.412   8.013   0.409
 4240SOL    HW224752   2.373   8.168   0.375
 4241SOL     OW24753   6.894   0.949   6.345
 4241SOL    HW124754   6.835   0.883   6.390
 4241SOL    HW224755   6.987   0.911   6.338
 4242SOL     OW24756   4.092   0.007   5.988
 4242SOL    HW124757   4.047   0.096   5.997
 4242SOL    HW224758   4.114  -0.009   5.892
 4243SOL     OW24759   3.053   2.175   0.587
 4243SOL    HW124760   3.044   2.142   0.493
 4243SOL    HW224761   3.006   2.113   0.649
 4244SOL     OW24762   1.164   1.900   6.968
 4244SOL    HW124763   1.083   1.923   6.915
 4244SOL    HW224764   1.155   1.808   7.006
 4245SOL     OW24765   0.410   8.008   6.256
 4245SOL    HW124766   0.329   7.956   6.287
 4245SOL    HW224767   0.432   8.078   6.324
 4246SOL     OW24768   5.423   0.116   5.375
 4246SOL    HW124769   5.382   0.134   5.286
 4246SOL    HW224770   5.465   0.199   5.410
 4247SOL     OW24771   4.660   0.850   0.274
 4247SOL    HW124772   4.742   0.864   0.218
 4247SOL    HW224773   4.643   0.932   0.329
 4248SOL     OW24774   3.900   3.066   0.433
 4248SOL    HW124775   3.938   2.974   0.426
 4248SOL    HW224776   3.955   3.129   0.378
 4249SOL     OW24777   8.794   4.819   6.696
 4249SOL    HW124778   8.856   4.781   6.764
 4249SOL    HW224779   8.766   4.911   6.724
 4250SOL     OW24780   6.079   1.500   6.174
 4250SOL    HW124781   6.001   1.438   6.170
 4250SOL    HW224782   6.093   1.541   6.084
 4251SOL     OW24783   3.920   6.255   6.022
 4251SOL    HW124784   3.994   6.225   5.963
 4251SOL    HW224785   3.934   6.352   6.046
 4252SOL     OW24786   0.387   5.481   5.863
 4252SOL    HW124787   0.383   5.581   5.873
 4252SOL    HW224788   0.481   5.453   5.844
 4253SOL     OW24789   3.764   1.959   1.020
 4253SOL    HW124790   3.803   2.005   0.940
 4253SOL    HW224791   3.828   1.889   1.052
 4254SOL     OW24792   8.419   6.525   5.782
 4254SOL    HW124793   8.496   6.583   5.756
 4254SOL    HW224794   8.453   6.433   5.803
 4255SOL     OW24795   9.306   7.873   6.317
 4255SOL    HW124796   9.387   7.854   6.261
 4255SOL    HW224797   9.292   7.971   6.323
 4256SOL     OW24798   8.580   0.040   1.059
 4256SOL    HW124799   8.616   0.092   1.136
 4256SOL    HW224800   8.505  -0.018   1.091
 4257SOL     OW24801   8.355   6.851   0.977
 4257SOL    HW124802   8.360   6.793   1.058
 4257SOL    HW224803   8.307   6.802   0.904
 4258SOL     OW24804   9.317   3.446   1.627
 4258SOL    HW124805   9.273   3.372   1.679
 4258SOL    HW224806   9.287   3.534   1.664
 4259SOL     OW24807   5.919   6.787   1.326
 4259SOL    HW124808   5.917   6.768   1.424
 4259SOL    HW224809   5.954   6.707   1.277
 4260SOL     OW24810   4.639   7.611   1.033
 4260SOL    HW124811   4.547   7.643   1.055
 4260SOL    HW224812   4.639   7.511   1.031
 4261SOL     OW24813   4.452   1.783   1.924
 4261SOL    HW124814   4.478   1.858   1.984
 4261SOL    HW224815   4.393   1.719   1.973
 4262SOL     OW24816   7.634   0.091   6.030
 4262SOL    HW124817   7.625   0.180   5.985
 4262SOL    HW224818   7.578   0.090   6.112
 4263SOL     OW24819   9.339   5.481   5.081
 4263SOL    HW124820   9.415   5.479   5.016
 4263SOL    HW224821   9.254   5.502   5.032
 4264SOL     OW24822   4.617   5.186   1.024
 4264SOL    HW124823   4.555   5.249   0.977
 4264SOL    HW224824   4.603   5.193   1.123
 4265SOL     OW24825   0.694   1.231   6.579
 4265SOL    HW124826   0.632   1.230   6.500
 4265SOL    HW224827   0.780   1.187   6.554
 4266SOL     OW24828   3.857   6.016   0.809
 4266SOL    HW124829   3.911   6.098   0.821
 4266SOL    HW224830   3.780   6.016   0.874
 4267SOL     OW24831   8.853   6.279   6.042
 4267SOL    HW124832   8.815   6.194   6.079
 4267SOL    HW224833   8.938   6.302   6.091
 4268SOL     OW24834   3.885   7.334   2.637
 4268SOL    HW124835   3.916   7.239   2.635
 4268SOL    HW224836   3.898   7.372   2.729
 4269SOL     OW24837   7.067   5.520   5.364
 4269SOL    HW124838   7.076   5.503   5.462
 4269SOL    HW224839   7.016   5.605   5.349
 4270SOL     OW24840   4.587   5.235   1.292
 4270SOL    HW124841   4.490   5.214   1.304
 4270SOL    HW224842   4.601   5.333   1.305
 4271SOL     OW24843   6.213   4.636   5.897
 4271SOL    HW124844   6.165   4.560   5.853
 4271SOL    HW224845   6.198   4.633   5.996
 4272SOL     OW24846   0.497   0.159   6.529
 4272SOL    HW124847   0.557   0.085   6.561
 4272SOL    HW224848   0.453   0.202   6.607
 4273SOL     OW24849   2.971   0.809   5.965
 4273SOL    HW124850   2.919   0.784   5.883
 4273SOL    HW224851   3.022   0.729   5.998
 4274SOL     OW24852   2.908   6.796   6.416
 4274SOL    HW124853   2.973   6.823   6.486
 4274SOL    HW224854   2.889   6.874   6.356
 4275SOL     OW24855   0.899   6.124   5.051
 4275SOL    HW124856   0.924   6.058   5.122
 4275SOL    HW224857   0.974   6.133   4.986
 4276SOL     OW24858   5.905   3.720   6.610
 4276SOL    HW124859   5.937   3.639   6.561
 4276SOL    HW224860   5.836   3.693   6.677
 4277SOL     OW24861   3.569   7.201   6.938
 4277SOL    HW124862   3.638   7.134   6.965
 4277SOL    HW224863   3.566   7.275   7.005
 4278SOL     OW24864   3.764   7.534   1.340
 4278SOL    HW124865   3.698   7.497   1.275
 4278SOL    HW224866   3.747   7.631   1.353
 4279SOL     OW24867   4.574   4.516   1.162
 4279SOL    HW124868   4.570   4.548   1.067
 4279SOL    HW224869   4.640   4.441   1.168
 4280SOL     OW24870   5.422   4.121   1.094
 4280SOL    HW124871   5.470   4.185   1.155
 4280SOL    HW224872   5.466   4.121   1.004
 4281SOL     OW24873   4.155   0.858   0.877
 4281SOL    HW124874   4.237   0.914   0.865
 4281SOL    HW224875   4.164   0.775   0.823
 4282SOL     OW24876   6.216   0.128   1.284
 4282SOL    HW124877   6.293   0.065   1.268
 4282SOL    HW224878   6.186   0.165   1.196
 4283SOL     OW24879   6.219   2.171   5.704
 4283SOL    HW124880   6.296   2.228   5.679
 4283SOL    HW224881   6.144   2.185   5.639
 4284SOL     OW24882   8.342   7.196   0.607
 4284SOL    HW124883   8.321   7.098   0.609
 4284SOL    HW224884   8.366   7.227   0.699
 4285SOL     OW24885   3.712   5.876   0.250
 4285SOL    HW124886   3.705   5.942   0.325
 4285SOL    HW224887   3.655   5.906   0.174
 4286SOL     OW24888   8.760   2.203   6.961
 4286SOL    HW124889   8.795   2.290   6.925
 4286SOL    HW224890   8.723   2.149   6.886
 4287SOL     OW24891   7.182   2.092   6.912
 4287SOL    HW124892   7.113   2.030   6.875
 4287SOL    HW224893   7.179   2.178   6.861
 4288SOL     OW24894   0.778   5.459   6.223
 4288SOL    HW124895   0.773   5.410   6.310
 4288SOL    HW224896   0.829   5.544   6.235
 4289SOL     OW24897   5.222   1.522   6.373
 4289SOL    HW124898   5.275   1.459   6.316
 4289SOL    HW224899   5.130   1.486   6.387
 4290SOL     OW24900   1.437   3.770   0.892
 4290SOL    HW124901   1.342   3.783   0.861
 4290SOL    HW224902   1.462   3.844   0.954
 4291SOL     OW24903   7.146   2.339   6.830
 4291SOL    HW124904   7.239   2.350   6.794
 4291SOL    HW224905   7.129   2.408   6.899
 4292SOL     OW24906   2.351   3.838   5.938
 4292SOL    HW124907   2.445   3.830   5.906
 4292SOL    HW224908   2.292   3.781   5.881
 4293SOL     OW24909   8.148   0.714   5.323
 4293SOL    HW124910   8.072   0.671   5.371
 4293SOL    HW224911   8.182   0.653   5.252
 4294SOL     OW24912   6.599   7.465   1.247
 4294SOL    HW124913   6.504   7.443   1.268
 4294SOL    HW224914   6.604   7.515   1.160
 4295SOL     OW24915   4.256   7.069   0.791
 4295SOL    HW124916   4.271   6.981   0.747
 4295SOL    HW224917   4.162   7.099   0.775
 4296SOL     OW24918   2.725   5.824   6.321
 4296SOL    HW124919   2.667   5.895   6.280
 4296SOL    HW224920   2.817   5.861   6.335
 4297SOL     OW24921   3.132   0.532   0.939
 4297SOL    HW124922   3.049   0.489   0.903
 4297SOL    HW224923   3.186   0.464   0.990
 4298SOL     OW24924   4.965   7.898   6.267
 4298SOL    HW124925   4.974   7.938   6.359
 4298SOL    HW224926   5.035   7.938   6.207
 4299SOL     OW24927   7.321   3.825   1.080
 4299SOL    HW124928   7.308   3.779   1.168
 4299SOL    HW224929   7.418   3.848   1.068
 4300SOL     OW24930   3.073   6.889   5.779
 4300SOL    HW124931   2.988   6.879   5.830
 4300SOL    HW224932   3.058   6.949   5.700
 4301SOL     OW24933   2.562   7.228   0.715
 4301SOL    HW124934   2.614   7.309   0.687
 4301SOL    HW224935   2.466   7.254   0.730
 4302SOL     OW24936   4.696   5.641   6.233
 4302SOL    HW124937   4.764   5.679   6.170
 4302SOL    HW224938   4.722   5.548   6.258
 4303SOL     OW24939   6.065   4.588   1.321
 4303SOL    HW124940   5.985   4.648   1.325
 4303SOL    HW224941   6.071   4.535   1.405
 4304SOL     OW24942   3.515   3.869   1.786
 4304SOL    HW124943   3.553   3.952   1.746
 4304SOL    HW224944   3.423   3.854   1.750
 4305SOL     OW24945   4.633   1.420   1.230
 4305SOL    HW124946   4.721   1.391   1.268
 4305SOL    HW224947   4.558   1.379   1.282
 4306SOL     OW24948   7.584   6.712   0.336
 4306SOL    HW124949   7.500   6.712   0.281
 4306SOL    HW224950   7.565   6.674   0.426
 4307SOL     OW24951   9.463   7.445   0.725
 4307SOL    HW124952   9.501   7.405   0.808
 4307SOL    HW224953   9.384   7.391   0.695
 4308SOL     OW24954   8.109   0.439   0.634
 4308SOL    HW124955   8.139   0.460   0.541
 4308SOL    HW224956   8.101   0.523   0.686
 4309SOL     OW24957   6.047   2.276   0.370
 4309SOL    HW124958   6.099   2.359   0.391
 4309SOL    HW224959   6.081   2.200   0.425
 4310SOL     OW24960   8.692   1.353   6.375
 4310SOL    HW124961   8.755   1.307   6.438
 4310SOL    HW224962   8.601   1.312   6.383
 4311SOL     OW24963   3.301   6.127   1.029
 4311SOL    HW124964   3.322   6.133   0.932
 4311SOL    HW224965   3.234   6.196   1.053
 4312SOL     OW24966   6.608   6.009   5.519
 4312SOL    HW124967   6.644   6.000   5.427
 4312SOL    HW224968   6.658   5.947   5.580
 4313SOL     OW24969   5.336   1.514   1.436
 4313SOL    HW124970   5.378   1.447   1.498
 4313SOL    HW224971   5.312   1.470   1.350
 4314SOL     OW24972   7.992   4.648   0.437
 4314SOL    HW124973   8.022   4.726   0.382
 4314SOL    HW224974   7.950   4.579   0.377
 4315SOL     OW24975   7.269   0.307   6.634
 4315SOL    HW124976   7.171   0.299   6.612
 4315SOL    HW224977   7.281   0.360   6.717
 4316SOL     OW24978   1.014   2.308   6.933
 4316SOL    HW124979   1.102   2.262   6.922
 4316SOL    HW224980   1.029   2.406   6.946
 4317SOL     OW24981   7.374   5.401   1.388
 4317SOL    HW124982   7.359   5.344   1.469
 4317SOL    HW224983   7.463   5.446   1.394
 4318SOL     OW24984   6.311   4.727   6.281
 4318SOL    HW124985   6.381   4.670   6.323
 4318SOL    HW224986   6.352   4.812   6.248
 4319SOL     OW24987   5.402   7.357   6.295
 4319SOL    HW124988   5.373   7.270   6.255
 4319SOL    HW224989   5.499   7.354   6.316
 4320SOL     OW24990   9.389   5.174   6.759
 4320SOL    HW124991   9.310   5.223   6.797
 4320SOL    HW224992   9.472   5.203   6.806
 4321SOL     OW24993   0.473   4.588   1.002
 4321SOL    HW124994   0.494   4.683   1.025
 4321SOL    HW224995   0.403   4.584   0.931
 4322SOL     OW24996   7.474   8.401   4.934
 4322SOL    HW124997   7.538   8.441   4.999
 4322SOL    HW224998   7.430   8.321   4.975
 4323SOL     OW24999   7.793   4.613   6.550
 4323SOL    HW125000   7.804   4.657   6.639
 4323SOL    HW225001   7.861   4.649   6.486
 4324SOL     OW25002   1.766   6.575   0.787
 4324SOL    HW125003   1.810   6.577   0.697
 4324SOL    HW225004   1.810   6.643   0.846
 4325SOL     OW25005   5.152   6.932   0.601
 4325SOL    HW125006   5.066   6.909   0.646
 4325SOL    HW225007   5.133   6.974   0.512
 4326SOL     OW25008   0.865   4.552   5.481
 4326SOL    HW125009   0.960   4.532   5.502
 4326SOL    HW225010   0.847   4.531   5.384
 4327SOL     OW25011   7.629   5.395   0.305
 4327SOL    HW125012   7.582   5.343   0.234
 4327SOL    HW225013   7.721   5.420   0.273
 4328SOL     OW25014   1.850   3.383   5.813
 4328SOL    HW125015   1.783   3.336   5.755
 4328SOL    HW225016   1.889   3.318   5.878
 4329SOL     OW25017   8.931   7.920   1.610
 4329SOL    HW125018   8.840   7.961   1.601
 4329SOL    HW225019   8.972   7.949   1.696
 4330SOL     OW25020   2.026   8.378   0.760
 4330SOL    HW125021   2.121   8.383   0.789
 4330SOL    HW225022   2.016   8.314   0.684
 4331SOL     OW25023   7.182   6.414   0.410
 4331SOL    HW125024   7.183   6.320   0.444
 4331SOL    HW225025   7.124   6.419   0.328
 4332SOL     OW25026   3.997   7.020   0.313
 4332SOL    HW125027   4.091   7.036   0.280
 4332SOL    HW225028   3.991   6.930   0.354
 4333SOL     OW25029   2.325   7.109   6.167
 4333SOL    HW125030   2.264   7.127   6.244
 4333SOL    HW225031   2.284   7.145   6.083
 4334SOL     OW25032   7.463   4.513   0.882
 4334SOL    HW125033   7.411   4.587   0.840
 4334SOL    HW225034   7.538   4.487   0.822
 4335SOL     OW25035   1.303   6.327   1.462
 4335SOL    HW125036   1.337   6.421   1.473
 4335SOL    HW225037   1.267   6.316   1.369
 4336SOL     OW25038   6.108   8.376   1.359
 4336SOL    HW125039   6.102   8.320   1.441
 4336SOL    HW225040   6.158   8.460   1.379
 4337SOL     OW25041   6.790   3.072   1.117
 4337SOL    HW125042   6.869   3.087   1.058
 4337SOL    HW225043   6.812   3.003   1.186
 4338SOL     OW25044   4.761   8.340   6.403
 4338SOL    HW125045   4.673   8.371   6.366
 4338SOL    HW225046   4.777   8.246   6.376
 4339SOL     OW25047   8.017   2.848   1.344
 4339SOL    HW125048   8.018   2.758   1.301
 4339SOL    HW225049   7.951   2.849   1.419
 4340SOL     OW25050   1.490   7.598   5.446
 4340SOL    HW125051   1.565   7.555   5.395
 4340SOL    HW225052   1.410   7.607   5.387
 4341SOL     OW25053   4.647   8.336   1.273
 4341SOL    HW125054   4.682   8.429   1.261
 4341SOL    HW225055   4.671   8.303   1.364
 4342SOL     OW25056   2.325   1.696   5.984
 4342SOL    HW125057   2.310   1.794   5.993
 4342SOL    HW225058   2.307   1.669   5.889
 4343SOL     OW25059   9.223   3.684   1.766
 4343SOL    HW125060   9.171   3.767   1.742
 4343SOL    HW225061   9.231   3.677   1.865
 4344SOL     OW25062   5.244   1.779   1.535
 4344SOL    HW125063   5.233   1.798   1.632
 4344SOL    HW225064   5.272   1.683   1.523
 4345SOL     OW25065   3.349   7.849   1.826
 4345SOL    HW125066   3.355   7.839   1.925
 4345SOL    HW225067   3.286   7.780   1.790
 4346SOL     OW25068   2.899   2.141   1.781
 4346SOL    HW125069   2.841   2.078   1.833
 4346SOL    HW225070   2.920   2.101   1.692
 4347SOL     OW25071   0.549   8.310   5.929
 4347SOL    HW125072   0.498   8.352   6.004
 4347SOL    HW225073   0.503   8.226   5.900
 4348SOL     OW25074   6.001   8.266   5.607
 4348SOL    HW125075   5.986   8.346   5.665
 4348SOL    HW225076   6.099   8.256   5.588
 4349SOL     OW25077   0.969   0.852   2.171
 4349SOL    HW125078   1.052   0.876   2.221
 4349SOL    HW225079   0.899   0.922   2.189
 4350SOL     OW25080   5.679   2.737   5.837
 4350SOL    HW125081   5.608   2.793   5.794
 4350SOL    HW225082   5.647   2.643   5.846
 4351SOL     OW25083   4.206   0.990   5.980
 4351SOL    HW125084   4.206   1.084   5.945
 4351SOL    HW225085   4.250   0.988   6.070
 4352SOL     OW25086   0.242   3.862   6.851
 4352SOL    HW125087   0.213   3.769   6.828
 4352SOL    HW225088   0.327   3.858   6.903
 4353SOL     OW25089   0.818   1.225   5.249
 4353SOL    HW125090   0.787   1.313   5.286
 4353SOL    HW225091   0.915   1.232   5.224
 4354SOL     OW25092   6.230   7.140   0.938
 4354SOL    HW125093   6.292   7.218   0.925
 4354SOL    HW225094   6.141   7.162   0.898
 4355SOL     OW25095   0.541   7.266   2.191
 4355SOL    HW125096   0.481   7.345   2.183
 4355SOL    HW225097   0.509   7.207   2.265
 4356SOL     OW25098   0.560   5.699   4.542
 4356SOL    HW125099   0.488   5.701   4.611
 4356SOL    HW225100   0.637   5.646   4.576
 4357SOL     OW25101   5.693   3.449   1.280
 4357SOL    HW125102   5.695   3.544   1.311
 4357SOL    HW225103   5.763   3.396   1.328
 4358SOL     OW25104   3.018   8.351   6.302
 4358SOL    HW125105   3.052   8.412   6.230
 4358SOL    HW225106   2.921   8.368   6.318
 4359SOL     OW25107   7.477   4.392   6.328
 4359SOL    HW125108   7.445   4.486   6.342
 4359SOL    HW225109   7.478   4.371   6.231
 4360SOL     OW25110   8.955   3.566   6.127
 4360SOL    HW125111   8.893   3.592   6.201
 4360SOL    HW225112   8.969   3.644   6.066
 4361SOL     OW25113   5.609   8.432   0.339
 4361SOL    HW125114   5.601   8.333   0.349
 4361SOL    HW225115   5.693   8.463   0.385
 4362SOL     OW25116   8.167   0.126   6.844
 4362SOL    HW125117   8.146   0.088   6.754
 4362SOL    HW225118   8.259   0.100   6.872
 4363SOL     OW25119   6.230   7.741   0.673
 4363SOL    HW125120   6.188   7.697   0.752
 4363SOL    HW225121   6.177   7.721   0.591
 4364SOL     OW25122   0.663   6.392   5.022
 4364SOL    HW125123   0.676   6.322   5.093
 4364SOL    HW225124   0.736   6.386   4.955
 4365SOL     OW25125   0.955   4.221   6.676
 4365SOL    HW125126   0.953   4.278   6.758
 4365SOL    HW225127   0.931   4.276   6.596
 4366SOL     OW25128   6.610   4.197   5.705
 4366SOL    HW125129   6.662   4.281   5.721
 4366SOL    HW225130   6.518   4.207   5.744
 4367SOL     OW25131   6.549   2.587   0.599
 4367SOL    HW125132   6.564   2.584   0.501
 4367SOL    HW225133   6.482   2.658   0.621
 4368SOL     OW25134   0.339   5.322   6.213
 4368SOL    HW125135   0.263   5.387   6.206
 4368SOL    HW225136   0.333   5.255   6.140
 4369SOL     OW25137   1.705   5.711   6.369
 4369SOL    HW125138   1.709   5.776   6.293
 4369SOL    HW225139   1.753   5.627   6.344
 4370SOL     OW25140   7.538   7.994   1.205
 4370SOL    HW125141   7.526   8.083   1.161
 4370SOL    HW225142   7.466   7.980   1.273
 4371SOL     OW25143   4.614   6.458   5.822
 4371SOL    HW125144   4.589   6.404   5.742
 4371SOL    HW225145   4.595   6.555   5.805
 4372SOL     OW25146   1.488   1.830   0.265
 4372SOL    HW125147   1.532   1.768   0.330
 4372SOL    HW225148   1.391   1.838   0.287
 4373SOL     OW25149   3.792   2.756   1.525
 4373SOL    HW125150   3.724   2.689   1.555
 4373SOL    HW225151   3.831   2.727   1.438
 4374SOL     OW25152   2.835   3.342   1.197
 4374SOL    HW125153   2.903   3.384   1.137
 4374SOL    HW225154   2.879   3.273   1.255
 4375SOL     OW25155   6.619   8.191   1.660
 4375SOL    HW125156   6.629   8.092   1.670
 4375SOL    HW225157   6.630   8.234   1.749
 4376SOL     OW25158   4.225   5.074   0.635
 4376SOL    HW125159   4.241   5.033   0.545
 4376SOL    HW225160   4.289   5.033   0.701
 4377SOL     OW25161   8.851   8.167   0.759
 4377SOL    HW125162   8.942   8.129   0.740
 4377SOL    HW225163   8.797   8.168   0.675
 4378SOL     OW25164   3.942   6.698   5.753
 4378SOL    HW125165   3.864   6.740   5.800
 4378SOL    HW225166   3.947   6.601   5.777
 4379SOL     OW25167   5.448   0.936   1.376
 4379SOL    HW125168   5.428   1.012   1.438
 4379SOL    HW225169   5.366   0.912   1.324
 4380SOL     OW25170   2.724   6.342   5.869
 4380SOL    HW125171   2.687   6.419   5.818
 4380SOL    HW225172   2.754   6.271   5.806
 4381SOL     OW25173   7.183   5.009   0.500
 4381SOL    HW125174   7.106   4.958   0.461
 4381SOL    HW225175   7.244   5.038   0.426
 4382SOL     OW25176   2.673   1.719   6.230
 4382SOL    HW125177   2.683   1.627   6.268
 4382SOL    HW225178   2.647   1.714   6.134
 4383SOL     OW25179   6.388   0.830   2.115
 4383SOL    HW125180   6.457   0.869   2.054
 4383SOL    HW225181   6.425   0.748   2.158
 4384SOL     OW25182   4.621   6.757   2.361
 4384SOL    HW125183   4.529   6.722   2.380
 4384SOL    HW225184   4.675   6.686   2.317
 4385SOL     OW25185   8.396   1.620   6.851
 4385SOL    HW125186   8.479   1.651   6.897
 4385SOL    HW225187   8.420   1.572   6.767
 4386SOL     OW25188   9.345   5.284   1.206
 4386SOL    HW125189   9.427   5.276   1.262
 4386SOL    HW225190   9.264   5.273   1.264
 4387SOL     OW25191   6.218   5.884   1.543
 4387SOL    HW125192   6.243   5.882   1.640
 4387SOL    HW225193   6.153   5.959   1.527
 4388SOL     OW25194   7.341   5.713   5.508
 4388SOL    HW125195   7.393   5.672   5.433
 4388SOL    HW225196   7.255   5.663   5.520
 4389SOL     OW25197   5.461   1.507   5.934
 4389SOL    HW125198   5.543   1.466   5.893
 4389SOL    HW225199   5.454   1.603   5.904
 4390SOL     OW25200   2.013   7.568   5.250
 4390SOL    HW125201   2.012   7.529   5.158
 4390SOL    HW225202   2.095   7.538   5.299
 4391SOL     OW25203   9.413   6.511   0.434
 4391SOL    HW125204   9.483   6.556   0.378
 4391SOL    HW225205   9.453   6.485   0.522
 4392SOL     OW25206   7.031   6.342   1.374
 4392SOL    HW125207   6.943   6.334   1.328
 4392SOL    HW225208   7.053   6.257   1.421
 4393SOL     OW25209   9.556   0.991   0.387
 4393SOL    HW125210   9.547   0.966   0.483
 4393SOL    HW225211   9.513   1.080   0.371
 4394SOL     OW25212   0.485  -0.061   5.674
 4394SOL    HW125213   0.536  -0.088   5.755
 4394SOL    HW225214   0.546  -0.012   5.611
 4395SOL     OW25215   0.716   3.899   6.069
 4395SOL    HW125216   0.630   3.888   6.020
 4395SOL    HW225217   0.793   3.882   6.006
 4396SOL     OW25218   5.200   4.835   6.791
 4396SOL    HW125219   5.121   4.797   6.840
 4396SOL    HW225220   5.225   4.773   6.717
 4397SOL     OW25221   5.247   3.435   1.038
 4397SOL    HW125222   5.225   3.364   0.971
 4397SOL    HW225223   5.309   3.397   1.107
 4398SOL     OW25224   2.633   2.368   6.557
 4398SOL    HW125225   2.673   2.411   6.639
 4398SOL    HW225226   2.618   2.271   6.574
 4399SOL     OW25227   7.190   5.995   6.610
 4399SOL    HW125228   7.209   5.924   6.679
 4399SOL    HW225229   7.128   6.063   6.648
 4400SOL     OW25230   5.128   0.347   1.086
 4400SOL    HW125231   5.170   0.437   1.089
 4400SOL    HW225232   5.098   0.321   1.178
 4401SOL     OW25233   3.726   0.868   5.171
 4401SOL    HW125234   3.817   0.877   5.131
 4401SOL    HW225235   3.658   0.867   5.099
 4402SOL     OW25236   8.675   7.613   1.437
 4402SOL    HW125237   8.585   7.569   1.436
 4402SOL    HW225238   8.746   7.545   1.454
 4403SOL     OW25239   7.543   4.185   1.587
 4403SOL    HW125240   7.554   4.141   1.676
 4403SOL    HW225241   7.467   4.250   1.591
 4404SOL     OW25242   3.200   7.110   1.675
 4404SOL    HW125243   3.215   7.184   1.741
 4404SOL    HW225244   3.235   7.138   1.585
 4405SOL     OW25245   7.973   5.221   5.716
 4405SOL    HW125246   7.980   5.221   5.816
 4405SOL    HW225247   7.897   5.280   5.687
 4406SOL     OW25248   4.664   0.736   1.426
 4406SOL    HW125249   4.609   0.773   1.501
 4406SOL    HW225250   4.623   0.761   1.339
 4407SOL     OW25251   8.551   3.368   6.684
 4407SOL    HW125252   8.527   3.464   6.700
 4407SOL    HW225253   8.513   3.340   6.595
 4408SOL     OW25254   3.273   4.231   6.831
 4408SOL    HW125255   3.325   4.167   6.887
 4408SOL    HW225256   3.188   4.189   6.802
 4409SOL     OW25257   2.425   5.224   6.388
 4409SOL    HW125258   2.491   5.165   6.342
 4409SOL    HW225259   2.335   5.180   6.387
 4410SOL     OW25260   4.500   8.366   0.591
 4410SOL    HW125261   4.409   8.326   0.607
 4410SOL    HW225262   4.505   8.455   0.635
 4411SOL     OW25263   1.960   0.005   1.274
 4411SOL    HW125264   2.035  -0.056   1.249
 4411SOL    HW225265   1.944   0.000   1.373
 4412SOL     OW25266   4.949   1.609   5.491
 4412SOL    HW125267   4.997   1.697   5.485
 4412SOL    HW225268   4.898   1.593   5.406
 4413SOL     OW25269   9.385   2.116   5.313
 4413SOL    HW125270   9.285   2.107   5.307
 4413SOL    HW225271   9.417   2.179   5.243
 4414SOL     OW25272   3.679   2.651   1.278
 4414SOL    HW125273   3.644   2.563   1.248
 4414SOL    HW225274   3.604   2.706   1.314
 4415SOL     OW25275   6.524   2.422   0.332
 4415SOL    HW125276   6.583   2.435   0.252
 4415SOL    HW225277   6.579   2.393   0.410
 4416SOL     OW25278   4.061   7.743   5.940
 4416SOL    HW125279   4.145   7.798   5.936
 4416SOL    HW225280   3.994   7.790   5.998
 4417SOL     OW25281   2.867   6.599   6.919
 4417SOL    HW125282   2.853   6.664   6.994
 4417SOL    HW225283   2.945   6.630   6.864
 4418SOL     OW25284   8.565   4.509   6.851
 4418SOL    HW125285   8.559   4.582   6.783
 4418SOL    HW225286   8.473   4.475   6.871
 4419SOL     OW25287   1.652   7.277   6.528
 4419SOL    HW125288   1.742   7.256   6.566
 4419SOL    HW225289   1.662   7.332   6.445
 4420SOL     OW25290   1.876   4.675   0.891
 4420SOL    HW125291   1.895   4.578   0.875
 4420SOL    HW225292   1.912   4.729   0.815
 4421SOL     OW25293   3.991   8.055   1.205
 4421SOL    HW125294   4.005   8.025   1.110
 4421SOL    HW225295   3.976   7.975   1.263
 4422SOL     OW25296   8.178   0.263   5.779
 4422SOL    HW125297   8.245   0.336   5.793
 4422SOL    HW225298   8.184   0.197   5.855
 4423SOL     OW25299   3.251   8.186   2.037
 4423SOL    HW125300   3.219   8.258   2.099
 4423SOL    HW225301   3.306   8.119   2.088
 4424SOL     OW25302   4.852   0.241   6.329
 4424SOL    HW125303   4.758   0.232   6.295
 4424SOL    HW225304   4.853   0.301   6.409
 4425SOL     OW25305   6.753   6.608   1.111
 4425SOL    HW125306   6.694   6.547   1.164
 4425SOL    HW225307   6.701   6.687   1.081
 4426SOL     OW25308   4.242   6.511   1.653
 4426SOL    HW125309   4.318   6.450   1.674
 4426SOL    HW225310   4.275   6.585   1.594
 4427SOL     OW25311   1.691   5.383   1.190
 4427SOL    HW125312   1.634   5.354   1.267
 4427SOL    HW225313   1.650   5.351   1.105
 4428SOL     OW25314   3.895   0.574   1.016
 4428SOL    HW125315   3.987   0.571   0.976
 4428SOL    HW225316   3.842   0.647   0.972
 4429SOL     OW25317   9.095   8.259   6.579
 4429SOL    HW125318   9.087   8.161   6.594
 4429SOL    HW225319   9.063   8.308   6.660
 4430SOL     OW25320   6.579   2.019   1.532
 4430SOL    HW125321   6.628   1.933   1.515
 4430SOL    HW225322   6.510   2.033   1.460
 4431SOL     OW25323   0.611   2.407   6.335
 4431SOL    HW125324   0.545   2.384   6.263
 4431SOL    HW225325   0.567   2.467   6.402
 4432SOL     OW25326   7.877   1.337   1.369
 4432SOL    HW125327   7.821   1.319   1.449
 4432SOL    HW225328   7.884   1.254   1.314
 4433SOL     OW25329   9.524   0.637   0.808
 4433SOL    HW125330   9.569   0.723   0.830
 4433SOL    HW225331   9.587   0.578   0.758
 4434SOL     OW25332   3.119   6.115   6.046
 4434SOL    HW125333   3.144   6.123   5.949
 4434SOL    HW225334   3.024   6.144   6.058
 4435SOL     OW25335   2.012   6.553   1.910
 4435SOL    HW125336   2.094   6.608   1.928
 4435SOL    HW225337   2.026   6.461   1.947
 4436SOL     OW25338   4.022   4.256   6.530
 4436SOL    HW125339   4.046   4.226   6.438
 4436SOL    HW225340   4.004   4.355   6.530
 4437SOL     OW25341   8.059   8.270   5.986
 4437SOL    HW125342   8.088   8.254   5.892
 4437SOL    HW225343   8.010   8.357   5.992
 4438SOL     OW25344   4.795   1.359   6.022
 4438SOL    HW125345   4.731   1.391   6.092
 4438SOL    HW225346   4.745   1.314   5.949
 4439SOL     OW25347   6.856   4.479   0.850
 4439SOL    HW125348   6.892   4.418   0.779
 4439SOL    HW225349   6.779   4.435   0.896
 4440SOL     OW25350   8.989   0.497   6.232
 4440SOL    HW125351   9.004   0.592   6.208
 4440SOL    HW225352   9.073   0.458   6.271
 4441SOL     OW25353   2.034   7.639   6.197
 4441SOL    HW125354   2.060   7.734   6.211
 4441SOL    HW225355   1.937   7.634   6.170
 4442SOL     OW25356   3.738   1.118   5.344
 4442SOL    HW125357   3.706   1.208   5.315
 4442SOL    HW225358   3.710   1.050   5.277
 4443SOL     OW25359   7.742   0.550   0.442
 4443SOL    HW125360   7.814   0.491   0.408
 4443SOL    HW225361   7.726   0.530   0.539
 4444SOL     OW25362   2.366   1.211   0.356
 4444SOL    HW125363   2.418   1.281   0.308
 4444SOL    HW225364   2.417   1.182   0.438
 4445SOL     OW25365   7.579   7.215   6.762
 4445SOL    HW125366   7.621   7.186   6.848
 4445SOL    HW225367   7.513   7.146   6.733
 4446SOL     OW25368   1.693   7.459   5.292
 4446SOL    HW125369   1.781   7.412   5.299
 4446SOL    HW225370   1.684   7.499   5.200
 4447SOL     OW25371   8.393   4.767   5.395
 4447SOL    HW125372   8.375   4.760   5.297
 4447SOL    HW225373   8.424   4.859   5.417
 4448SOL     OW25374   4.913   6.838   0.912
 4448SOL    HW125375   4.904   6.797   0.821
 4448SOL    HW225376   4.829   6.822   0.964
 4449SOL     OW25377   7.515   6.688   6.107
 4449SOL    HW125378   7.499   6.675   6.009
 4449SOL    HW225379   7.436   6.655   6.158
 4450SOL     OW25380   0.723   5.685   5.811
 4450SOL    HW125381   0.694   5.646   5.723
 4450SOL    HW225382   0.696   5.781   5.815
 4451SOL     OW25383   4.014   4.653   1.120
 4451SOL    HW125384   4.008   4.603   1.206
 4451SOL    HW225385   4.078   4.729   1.129
 4452SOL     OW25386   3.953   0.701   5.779
 4452SOL    HW125387   3.926   0.671   5.687
 4452SOL    HW225388   3.909   0.789   5.799
 4453SOL     OW25389   8.206   7.084   5.940
 4453SOL    HW125390   8.247   7.082   6.031
 4453SOL    HW225391   8.234   7.168   5.893
 4454SOL     OW25392   1.828   1.109   5.101
 4454SOL    HW125393   1.860   1.014   5.106
 4454SOL    HW225394   1.903   1.168   5.071
 4455SOL     OW25395   9.540   2.968   6.924
 4455SOL    HW125396   9.506   2.875   6.911
 4455SOL    HW225397   9.640   2.969   6.917
 4456SOL     OW25398   4.349   0.336   2.120
 4456SOL    HW125399   4.357   0.427   2.079
 4456SOL    HW225400   4.343   0.344   2.219
 4457SOL     OW25401   1.740   2.124   6.879
 4457SOL    HW125402   1.696   2.209   6.907
 4457SOL    HW225403   1.683   2.078   6.810
 4458SOL     OW25404   6.480   2.108   0.477
 4458SOL    HW125405   6.475   2.009   0.483
 4458SOL    HW225406   6.576   2.137   0.478
 4459SOL     OW25407   8.513   2.671   0.908
 4459SOL    HW125408   8.490   2.751   0.963
 4459SOL    HW225409   8.586   2.620   0.953
 4460SOL     OW25410   4.108   7.222   1.777
 4460SOL    HW125411   4.186   7.160   1.786
 4460SOL    HW225412   4.086   7.261   1.867
 4461SOL     OW25413   9.133   8.385   5.946
 4461SOL    HW125414   9.104   8.472   5.908
 4461SOL    HW225415   9.087   8.370   6.034
 4462SOL     OW25416   2.266   4.608   0.924
 4462SOL    HW125417   2.204   4.559   0.984
 4462SOL    HW225418   2.237   4.595   0.829
 4463SOL     OW25419   6.529   5.384   5.601
 4463SOL    HW125420   6.565   5.477   5.610
 4463SOL    HW225421   6.448   5.386   5.542
 4464SOL     OW25422   0.601   7.047   1.992
 4464SOL    HW125423   0.651   6.969   2.029
 4464SOL    HW225424   0.603   7.122   2.057
 4465SOL     OW25425   8.959   2.019   0.658
 4465SOL    HW125426   8.956   2.055   0.565
 4465SOL    HW225427   9.013   2.080   0.716
 4466SOL     OW25428   7.385   4.697   6.562
 4466SOL    HW125429   7.305   4.685   6.503
 4466SOL    HW225430   7.381   4.631   6.637
 4467SOL     OW25431   6.550   0.580   1.355
 4467SOL    HW125432   6.570   0.515   1.282
 4467SOL    HW225433   6.610   0.562   1.433
 4468SOL     OW25434   6.868   6.862   0.974
 4468SOL    HW125435   6.769   6.868   0.987
 4468SOL    HW225436   6.897   6.930   0.907
 4469SOL     OW25437   1.513   8.274   1.041
 4469SOL    HW125438   1.582   8.301   0.973
 4469SOL    HW225439   1.552   8.282   1.133
 4470SOL     OW25440   4.007   4.122   1.833
 4470SOL    HW125441   3.931   4.118   1.898
 4470SOL    HW225442   4.093   4.136   1.883
 4471SOL     OW25443   7.066   2.811   0.267
 4471SOL    HW125444   7.164   2.798   0.279
 4471SOL    HW225445   7.038   2.898   0.307
 4472SOL     OW25446   6.900   1.300   0.262
 4472SOL    HW125447   6.910   1.362   0.184
 4472SOL    HW225448   6.879   1.208   0.230
 4473SOL     OW25449   8.441   5.962   1.151
 4473SOL    HW125450   8.515   5.929   1.093
 4473SOL    HW225451   8.475   6.035   1.210
 4474SOL     OW25452   5.937   2.744   5.735
 4474SOL    HW125453   5.925   2.675   5.664
 4474SOL    HW225454   5.854   2.751   5.790
 4475SOL     OW25455   3.185   5.560   1.174
 4475SOL    HW125456   3.150   5.646   1.210
 4475SOL    HW225457   3.233   5.510   1.246
 4476SOL     OW25458   2.529   6.605   1.044
 4476SOL    HW125459   2.604   6.661   1.079
 4476SOL    HW225460   2.566   6.518   1.009
 4477SOL     OW25461   1.358   1.079   1.299
 4477SOL    HW125462   1.361   1.120   1.391
 4477SOL    HW225463   1.309   0.993   1.303
 4478SOL     OW25464   0.510   5.992   1.404
 4478SOL    HW125465   0.563   6.020   1.485
 4478SOL    HW225466   0.421   5.959   1.432
 4479SOL     OW25467   3.602   3.759   0.625
 4479SOL    HW125468   3.601   3.856   0.651
 4479SOL    HW225469   3.661   3.748   0.545
 4480SOL     OW25470   0.155   6.022   5.992
 4480SOL    HW125471   0.065   6.057   6.019
 4480SOL    HW225472   0.151   5.923   5.983
 4481SOL     OW25473   6.100   1.476   5.852
 4481SOL    HW125474   6.046   1.524   5.784
 4481SOL    HW225475   6.092   1.377   5.838
 4482SOL     OW25476   4.323   3.269   5.652
 4482SOL    HW125477   4.394   3.203   5.627
 4482SOL    HW225478   4.274   3.297   5.569
 4483SOL     OW25479   4.131   1.918   5.923
 4483SOL    HW125480   4.180   1.858   5.860
 4483SOL    HW225481   4.195   1.954   5.991
 4484SOL     OW25482   7.934   6.598   0.858
 4484SOL    HW125483   7.975   6.512   0.830
 4484SOL    HW225484   7.893   6.588   0.949
 4485SOL     OW25485   6.672   2.587   2.034
 4485SOL    HW125486   6.671   2.541   2.122
 4485SOL    HW225487   6.761   2.630   2.020
 4486SOL     OW25488   4.663   6.433   6.111
 4486SOL    HW125489   4.651   6.467   6.017
 4486SOL    HW225490   4.597   6.360   6.128
 4487SOL     OW25491   2.810   7.174   5.863
 4487SOL    HW125492   2.852   7.262   5.838
 4487SOL    HW225493   2.738   7.190   5.930
 4488SOL     OW25494   6.376   0.420   0.706
 4488SOL    HW125495   6.283   0.422   0.743
 4488SOL    HW225496   6.434   0.484   0.758
 4489SOL     OW25497   1.520   3.939   1.388
 4489SOL    HW125498   1.539   3.900   1.478
 4489SOL    HW225499   1.429   3.910   1.358
 4490SOL     OW25500   1.114   6.768   1.100
 4490SOL    HW125501   1.065   6.748   1.184
 4490SOL    HW225502   1.209   6.791   1.121
 4491SOL     OW25503   1.783   4.955   5.919
 4491SOL    HW125504   1.717   4.966   5.845
 4491SOL    HW225505   1.873   4.933   5.880
 4492SOL     OW25506   9.079   6.318   0.440
 4492SOL    HW125507   9.104   6.413   0.459
 4492SOL    HW225508   9.017   6.284   0.510
 4493SOL     OW25509   7.500   4.257   6.567
 4493SOL    HW125510   7.500   4.320   6.489
 4493SOL    HW225511   7.513   4.163   6.534
 4494SOL     OW25512   4.171   6.720   5.918
 4494SOL    HW125513   4.221   6.647   5.872
 4494SOL    HW225514   4.081   6.731   5.876
 4495SOL     OW25515   5.028   5.220   1.467
 4495SOL    HW125516   5.096   5.276   1.420
 4495SOL    HW225517   4.969   5.175   1.400
 4496SOL     OW25518   3.519   4.149   1.856
 4496SOL    HW125519   3.571   4.227   1.821
 4496SOL    HW225520   3.422   4.163   1.838
 4497SOL     OW25521   4.828   5.682   0.786
 4497SOL    HW125522   4.829   5.754   0.856
 4497SOL    HW225523   4.845   5.722   0.696
 4498SOL     OW25524   0.415   6.467   5.581
 4498SOL    HW125525   0.447   6.378   5.613
 4498SOL    HW225526   0.319   6.479   5.604
 4499SOL     OW25527   9.029   2.877   5.769
 4499SOL    HW125528   9.092   2.856   5.843
 4499SOL    HW225529   8.974   2.957   5.792
 4500SOL     OW25530   8.672   7.326   5.262
 4500SOL    HW125531   8.686   7.228   5.245
 4500SOL    HW225532   8.701   7.378   5.182
 4501SOL     OW25533   8.880   0.357   0.675
 4501SOL    HW125534   8.941   0.407   0.736
 4501SOL    HW225535   8.890   0.392   0.582
 4502SOL     OW25536   3.437   2.261   1.363
 4502SOL    HW125537   3.503   2.235   1.433
 4502SOL    HW225538   3.351   2.289   1.407
 4503SOL     OW25539   9.530   3.591   0.378
 4503SOL    HW125540   9.462   3.517   0.378
 4503SOL    HW225541   9.619   3.553   0.350
 4504SOL     OW25542   6.677   4.688   6.241
 4504SOL    HW125543   6.743   4.763   6.240
 4504SOL    HW225544   6.621   4.691   6.158
 4505SOL     OW25545   0.746   7.794   0.786
 4505SOL    HW125546   0.780   7.719   0.844
 4505SOL    HW225547   0.815   7.816   0.717
 4506SOL     OW25548   5.167   8.394   6.736
 4506SOL    HW125549   5.074   8.372   6.704
 4506SOL    HW225550   5.194   8.483   6.699
 4507SOL     OW25551   7.559   8.235   6.373
 4507SOL    HW125552   7.614   8.160   6.409
 4507SOL    HW225553   7.618   8.300   6.325
 4508SOL     OW25554   0.874   0.229   6.576
 4508SOL    HW125555   0.849   0.168   6.652
 4508SOL    HW225556   0.951   0.286   6.603
 4509SOL     OW25557   5.781   0.203   0.824
 4509SOL    HW125558   5.789   0.103   0.821
 4509SOL    HW225559   5.763   0.238   0.731
 4510SOL     OW25560   5.439   0.327   6.720
 4510SOL    HW125561   5.399   0.407   6.765
 4510SOL    HW225562   5.461   0.349   6.625
 4511SOL     OW25563   2.906   6.692   0.863
 4511SOL    HW125564   2.946   6.782   0.851
 4511SOL    HW225565   2.976   6.622   0.848
 4512SOL     OW25566   5.737   1.392   0.921
 4512SOL    HW125567   5.742   1.425   1.015
 4512SOL    HW225568   5.817   1.335   0.901
 4513SOL     OW25569   4.844   0.437   6.489
 4513SOL    HW125570   4.780   0.492   6.542
 4513SOL    HW225571   4.927   0.490   6.470
 4514SOL     OW25572   7.630   7.996   6.104
 4514SOL    HW125573   7.565   8.034   6.039
 4514SOL    HW225574   7.723   8.024   6.079
 4515SOL     OW25575   2.047   0.380   1.640
 4515SOL    HW125576   1.972   0.340   1.692
 4515SOL    HW225577   2.035   0.362   1.543
 4516SOL     OW25578   1.945   3.383   1.198
 4516SOL    HW125579   1.931   3.301   1.253
 4516SOL    HW225580   2.027   3.372   1.142
 4517SOL     OW25581   6.867   1.465   1.827
 4517SOL    HW125582   6.906   1.542   1.777
 4517SOL    HW225583   6.823   1.500   1.911
 4518SOL     OW25584   6.203   7.535   6.074
 4518SOL    HW125585   6.132   7.533   6.144
 4518SOL    HW225586   6.180   7.470   6.001
 4519SOL     OW25587   1.844   7.476   0.833
 4519SOL    HW125588   1.803   7.557   0.877
 4519SOL    HW225589   1.940   7.494   0.813
 4520SOL     OW25590   2.388   0.414   5.767
 4520SOL    HW125591   2.389   0.367   5.679
 4520SOL    HW225592   2.435   0.359   5.836
 4521SOL     OW25593   4.503   4.178   6.843
 4521SOL    HW125594   4.565   4.250   6.874
 4521SOL    HW225595   4.421   4.219   6.803
 4522SOL     OW25596   1.383   0.004   0.798
 4522SOL    HW125597   1.473   0.043   0.821
 4522SOL    HW225598   1.336  -0.021   0.883
 4523SOL     OW25599   0.534   4.103   0.942
 4523SOL    HW125600   0.466   4.042   0.901
 4523SOL    HW225601   0.601   4.130   0.872
 4524SOL     OW25602   5.956   1.575   0.834
 4524SOL    HW125603   5.857   1.565   0.844
 4524SOL    HW225604   5.983   1.667   0.863
 4525SOL     OW25605   6.609   3.724   1.098
 4525SOL    HW125606   6.639   3.805   1.148
 4525SOL    HW225607   6.581   3.751   1.006
 4526SOL     OW25608   7.297   8.162   6.444
 4526SOL    HW125609   7.390   8.190   6.420
 4526SOL    HW225610   7.262   8.223   6.515
 4527SOL     OW25611   6.401   1.711   6.585
 4527SOL    HW125612   6.310   1.674   6.567
 4527SOL    HW225613   6.393   1.803   6.624
 4528SOL     OW25614   6.067   4.375   1.119
 4528SOL    HW125615   6.075   4.434   1.199
 4528SOL    HW225616   5.997   4.306   1.135
 4529SOL     OW25617   8.929   5.233   6.635
 4529SOL    HW125618   8.927   5.325   6.596
 4529SOL    HW225619   8.980   5.172   6.574
 4530SOL     OW25620   9.474   3.852   0.431
 4530SOL    HW125621   9.547   3.916   0.407
 4530SOL    HW225622   9.504   3.759   0.411
 4531SOL     OW25623   9.400   4.012   0.927
 4531SOL    HW125624   9.325   3.980   0.869
 4531SOL    HW225625   9.418   4.108   0.906
 4532SOL     OW25626   2.766   1.062   1.766
 4532SOL    HW125627   2.851   1.115   1.773
 4532SOL    HW225628   2.788   0.967   1.744
 4533SOL     OW25629   6.328   6.165   1.431
 4533SOL    HW125630   6.333   6.265   1.425
 4533SOL    HW225631   6.338   6.137   1.527
 4534SOL     OW25632   7.303   6.012   0.443
 4534SOL    HW125633   7.286   5.925   0.489
 4534SOL    HW225634   7.401   6.030   0.439
 4535SOL     OW25635   1.790   3.869   0.984
 4535SOL    HW125636   1.807   3.771   0.995
 4535SOL    HW225637   1.740   3.903   1.063
 4536SOL     OW25638   6.837   2.935   6.583
 4536SOL    HW125639   6.802   2.995   6.655
 4536SOL    HW225640   6.869   2.849   6.623
 4537SOL     OW25641   4.086   5.977   6.904
 4537SOL    HW125642   4.056   5.882   6.895
 4537SOL    HW225643   4.181   5.985   6.875
 4538SOL     OW25644   3.326   7.117   0.307
 4538SOL    HW125645   3.399   7.136   0.241
 4538SOL    HW225646   3.270   7.042   0.273
 4539SOL     OW25647   4.263   5.808   0.843
 4539SOL    HW125648   4.300   5.881   0.900
 4539SOL    HW225649   4.296   5.720   0.875
 4540SOL     OW25650   3.198   1.413   6.592
 4540SOL    HW125651   3.236   1.327   6.625
 4540SOL    HW225652   3.242   1.489   6.640
 4541SOL     OW25653   3.852   1.748   0.409
 4541SOL    HW125654   3.843   1.655   0.371
 4541SOL    HW225655   3.796   1.811   0.355
 4542SOL     OW25656   2.776   5.390   1.117
 4542SOL    HW125657   2.716   5.311   1.108
 4542SOL    HW225658   2.845   5.372   1.187
 4543SOL     OW25659   0.734   1.791   6.805
 4543SOL    HW125660   0.635   1.779   6.809
 4543SOL    HW225661   0.769   1.759   6.717
 4544SOL     OW25662   2.750   7.485   0.900
 4544SOL    HW125663   2.666   7.443   0.935
 4544SOL    HW225664   2.821   7.482   0.971
 4545SOL     OW25665   2.494   1.636   5.597
 4545SOL    HW125666   2.487   1.540   5.570
 4545SOL    HW225667   2.422   1.689   5.552
 4546SOL     OW25668   7.003   7.379   0.746
 4546SOL    HW125669   7.070   7.453   0.740
 4546SOL    HW225670   6.947   7.378   0.663
 4547SOL     OW25671   6.261   6.697   0.976
 4547SOL    HW125672   6.281   6.604   0.944
 4547SOL    HW225673   6.253   6.758   0.897
 4548SOL     OW25674   2.046   5.515   5.325
 4548SOL    HW125675   1.982   5.439   5.314
 4548SOL    HW225676   2.056   5.563   5.238
 4549SOL     OW25677   4.518   2.160   0.659
 4549SOL    HW125678   4.480   2.081   0.708
 4549SOL    HW225679   4.460   2.181   0.580
 4550SOL     OW25680   7.293   4.319   1.009
 4550SOL    HW125681   7.231   4.360   1.076
 4550SOL    HW225682   7.330   4.390   0.949
 4551SOL     OW25683   1.887   7.143   6.269
 4551SOL    HW125684   1.977   7.180   6.293
 4551SOL    HW225685   1.817   7.213   6.283
 4552SOL     OW25686   2.297   7.594   0.950
 4552SOL    HW125687   2.247   7.612   0.866
 4552SOL    HW225688   2.267   7.657   1.022
 4553SOL     OW25689   3.811   0.517   6.955
 4553SOL    HW125690   3.890   0.458   6.940
 4553SOL    HW225691   3.732   0.478   6.906
 4554SOL     OW25692   0.399   8.373   0.946
 4554SOL    HW125693   0.391   8.278   0.914
 4554SOL    HW225694   0.364   8.434   0.875
 4555SOL     OW25695   8.188   2.291   6.959
 4555SOL    HW125696   8.120   2.364   6.952
 4555SOL    HW225697   8.214   2.279   7.055
 4556SOL     OW25698   7.180   3.244   6.526
 4556SOL    HW125699   7.252   3.315   6.522
 4556SOL    HW225700   7.098   3.278   6.479
 4557SOL     OW25701   5.066   5.508   0.754
 4557SOL    HW125702   5.106   5.540   0.840
 4557SOL    HW225703   4.983   5.561   0.734
 4558SOL     OW25704   9.264   7.077   1.401
 4558SOL    HW125705   9.191   7.041   1.460
 4558SOL    HW225706   9.314   7.148   1.450
 4559SOL     OW25707   4.568   3.628   0.456
 4559SOL    HW125708   4.509   3.579   0.393
 4559SOL    HW225709   4.640   3.675   0.405
 4560SOL     OW25710   7.627   7.090   1.006
 4560SOL    HW125711   7.696   7.141   1.057
 4560SOL    HW225712   7.550   7.150   0.986
 4561SOL     OW25713   6.134   5.063   0.946
 4561SOL    HW125714   6.150   5.113   0.860
 4561SOL    HW225715   6.217   5.065   1.001
 4562SOL     OW25716   0.218   6.019   4.807
 4562SOL    HW125717   0.226   6.047   4.903
 4562SOL    HW225718   0.185   6.097   4.753
 4563SOL     OW25719   5.144  -0.002   1.350
 4563SOL    HW125720   5.232   0.040   1.329
 4563SOL    HW225721   5.138  -0.092   1.306
 4564SOL     OW25722   9.423   4.672   0.559
 4564SOL    HW125723   9.389   4.581   0.534
 4564SOL    HW225724   9.507   4.692   0.509
 4565SOL     OW25725   4.383   3.968   1.163
 4565SOL    HW125726   4.412   4.053   1.119
 4565SOL    HW225727   4.286   3.975   1.188
 4566SOL     OW25728   5.922   7.759   0.782
 4566SOL    HW125729   5.879   7.848   0.763
 4566SOL    HW225730   5.861   7.686   0.755
 4567SOL     OW25731   4.089   7.113   5.380
 4567SOL    HW125732   4.020   7.057   5.334
 4567SOL    HW225733   4.167   7.128   5.319
 4568SOL     OW25734   4.357   6.014   0.989
 4568SOL    HW125735   4.372   6.074   1.068
 4568SOL    HW225736   4.375   6.065   0.905
 4569SOL     OW25737   9.025   1.480   0.907
 4569SOL    HW125738   9.028   1.406   0.975
 4569SOL    HW225739   9.112   1.528   0.907
 4570SOL     OW25740   7.592   7.778   1.003
 4570SOL    HW125741   7.581   7.857   1.063
 4570SOL    HW225742   7.518   7.712   1.022
 4571SOL     OW25743   2.060  -0.053   5.845
 4571SOL    HW125744   2.128   0.016   5.869
 4571SOL    HW225745   1.991  -0.013   5.785
 4572SOL     OW25746   0.538   3.172   5.480
 4572SOL    HW125747   0.631   3.207   5.488
 4572SOL    HW225748   0.525   3.130   5.391
 4573SOL     OW25749   0.902   7.966   0.250
 4573SOL    HW125750   0.905   7.869   0.228
 4573SOL    HW225751   0.874   7.978   0.346
 4574SOL     OW25752   0.189   3.342   0.320
 4574SOL    HW125753   0.256   3.370   0.389
 4574SOL    HW225754   0.123   3.279   0.362
 4575SOL     OW25755   3.777   1.198   1.639
 4575SOL    HW125756   3.873   1.169   1.633
 4575SOL    HW225757   3.772   1.290   1.676
 4576SOL     OW25758   1.057   3.433   0.582
 4576SOL    HW125759   1.022   3.369   0.513
 4576SOL    HW225760   1.154   3.449   0.565
 4577SOL     OW25761   7.418   8.026   6.930
 4577SOL    HW125762   7.475   7.986   7.002
 4577SOL    HW225763   7.380   7.952   6.874
 4578SOL     OW25764   2.586   7.528   6.606
 4578SOL    HW125765   2.580   7.498   6.702
 4578SOL    HW225766   2.599   7.448   6.548
 4579SOL     OW25767   4.364   8.027   0.814
 4579SOL    HW125768   4.371   7.927   0.818
 4579SOL    HW225769   4.395   8.066   0.901
 4580SOL     OW25770   1.685   5.900   6.142
 4580SOL    HW125771   1.609   5.963   6.131
 4580SOL    HW225772   1.678   5.828   6.073
 4581SOL     OW25773   2.595   3.213   1.040
 4581SOL    HW125774   2.677   3.252   1.083
 4581SOL    HW225775   2.531   3.286   1.019
 4582SOL     OW25776   1.480   4.402   0.915
 4582SOL    HW125777   1.418   4.403   0.837
 4582SOL    HW225778   1.571   4.373   0.885
 4583SOL     OW25779   1.219   2.542   4.686
 4583SOL    HW125780   1.313   2.562   4.713
 4583SOL    HW225781   1.220   2.486   4.603
 4584SOL     OW25782   3.764   7.812   1.491
 4584SOL    HW125783   3.826   7.882   1.457
 4584SOL    HW225784   3.686   7.855   1.536
 4585SOL     OW25785   9.452   8.128   5.331
 4585SOL    HW125786   9.511   8.100   5.255
 4585SOL    HW225787   9.414   8.218   5.312
 4586SOL     OW25788   7.506   5.159   1.224
 4586SOL    HW125789   7.463   5.196   1.306
 4586SOL    HW225790   7.598   5.125   1.247
 4587SOL     OW25791   5.150   4.593   1.317
 4587SOL    HW125792   5.185   4.592   1.411
 4587SOL    HW225793   5.218   4.552   1.256
 4588SOL     OW25794   5.174   0.682   5.829
 4588SOL    HW125795   5.148   0.715   5.738
 4588SOL    HW225796   5.222   0.594   5.819
 4589SOL     OW25797   5.927   1.837   5.698
 4589SOL    HW125798   5.857   1.893   5.654
 4589SOL    HW225799   5.933   1.748   5.651
 4590SOL     OW25800   2.168   5.787   6.802
 4590SOL    HW125801   2.256   5.829   6.779
 4590SOL    HW225802   2.172   5.750   6.895
 4591SOL     OW25803   6.388   4.638   5.697
 4591SOL    HW125804   6.335   4.643   5.781
 4591SOL    HW225805   6.326   4.640   5.618
 4592SOL     OW25806   0.348   0.476   0.916
 4592SOL    HW125807   0.290   0.489   0.836
 4592SOL    HW225808   0.296   0.499   0.999
 4593SOL     OW25809   8.712   1.782   0.615
 4593SOL    HW125810   8.756   1.702   0.655
 4593SOL    HW225811   8.772   1.821   0.545
 4594SOL     OW25812   7.192   5.973   6.336
 4594SOL    HW125813   7.181   5.961   6.435
 4594SOL    HW225814   7.129   5.912   6.288
 4595SOL     OW25815   6.665   2.440   1.187
 4595SOL    HW125816   6.649   2.537   1.168
 4595SOL    HW225817   6.703   2.395   1.107
 4596SOL     OW25818   3.174   0.887   1.662
 4596SOL    HW125819   3.201   0.827   1.587
 4596SOL    HW225820   3.075   0.905   1.656
 4597SOL     OW25821   2.131   0.181   1.942
 4597SOL    HW125822   2.220   0.166   1.987
 4597SOL    HW225823   2.073   0.235   2.002
 4598SOL     OW25824   2.311   0.641   1.222
 4598SOL    HW125825   2.329   0.674   1.129
 4598SOL    HW225826   2.227   0.681   1.256
 4599SOL     OW25827   5.496   7.775   0.992
 4599SOL    HW125828   5.573   7.832   1.021
 4599SOL    HW225829   5.463   7.723   1.070
 4600SOL     OW25830   7.995   7.534   6.179
 4600SOL    HW125831   7.908   7.565   6.218
 4600SOL    HW225832   8.027   7.602   6.113
 4601SOL     OW25833   7.110   2.629   1.466
 4601SOL    HW125834   7.074   2.544   1.425
 4601SOL    HW225835   7.157   2.607   1.552
 4602SOL     OW25836   7.988   4.692   5.666
 4602SOL    HW125837   7.895   4.681   5.631
 4602SOL    HW225838   8.050   4.631   5.616
 4603SOL     OW25839   1.110   7.359   1.607
 4603SOL    HW125840   1.152   7.331   1.693
 4603SOL    HW225841   1.018   7.320   1.601
 4604SOL     OW25842   0.264   6.193   6.199
 4604SOL    HW125843   0.266   6.106   6.248
 4604SOL    HW225844   0.224   6.178   6.108
 4605SOL     OW25845   8.243   4.730   6.384
 4605SOL    HW125846   8.269   4.658   6.448
 4605SOL    HW225847   8.286   4.816   6.411
 4606SOL     OW25848   7.645   0.112   5.398
 4606SOL    HW125849   7.586   0.053   5.342
 4606SOL    HW225850   7.701   0.169   5.338
 4607SOL     OW25851   0.228   4.951   6.439
 4607SOL    HW125852   0.157   4.914   6.498
 4607SOL    HW225853   0.317   4.913   6.466
 4608SOL     OW25854   1.496   7.417   1.364
 4608SOL    HW125855   1.418   7.386   1.310
 4608SOL    HW225856   1.558   7.469   1.306
 4609SOL     OW25857   3.674   1.859   5.938
 4609SOL    HW125858   3.757   1.868   5.992
 4609SOL    HW225859   3.697   1.854   5.841
 4610SOL     OW25860   6.811   7.382   6.427
 4610SOL    HW125861   6.744   7.310   6.446
 4610SOL    HW225862   6.807   7.451   6.499
 4611SOL     OW25863   4.277   2.023   5.180
 4611SOL    HW125864   4.238   2.032   5.272
 4611SOL    HW225865   4.231   2.086   5.118
 4612SOL     OW25866   9.054   7.926   6.108
 4612SOL    HW125867   8.969   7.971   6.082
 4612SOL    HW225868   9.128   7.960   6.050
 4613SOL     OW25869   9.445   0.050   5.709
 4613SOL    HW125870   9.402  -0.039   5.727
 4613SOL    HW225871   9.385   0.105   5.652
 4614SOL     OW25872   6.929   5.998   1.791
 4614SOL    HW125873   6.934   5.971   1.887
 4614SOL    HW225874   6.991   5.941   1.737
 4615SOL     OW25875   3.750   6.406   0.578
 4615SOL    HW125876   3.680   6.442   0.517
 4615SOL    HW225877   3.736   6.443   0.670
 4616SOL     OW25878   4.438   5.310   0.730
 4616SOL    HW125879   4.522   5.362   0.715
 4616SOL    HW225880   4.395   5.290   0.642
 4617SOL     OW25881   6.800   3.758   6.793
 4617SOL    HW125882   6.799   3.843   6.846
 4617SOL    HW225883   6.894   3.722   6.789
 4618SOL     OW25884   8.207   1.527   6.402
 4618SOL    HW125885   8.249   1.610   6.365
 4618SOL    HW225886   8.193   1.461   6.328
 4619SOL     OW25887   2.477   3.206   6.607
 4619SOL    HW125888   2.542   3.207   6.531
 4619SOL    HW225889   2.527   3.214   6.693
 4620SOL     OW25890   6.405   3.158   1.334
 4620SOL    HW125891   6.321   3.156   1.389
 4620SOL    HW225892   6.382   3.188   1.241
 4621SOL     OW25893   8.971   4.902   6.498
 4621SOL    HW125894   9.020   4.907   6.585
 4621SOL    HW225895   8.873   4.898   6.515
 4622SOL     OW25896   1.827   6.486   5.472
 4622SOL    HW125897   1.741   6.435   5.462
 4622SOL    HW225898   1.880   6.477   5.387
 4623SOL     OW25899   3.857   0.644   1.411
 4623SOL    HW125900   3.837   0.726   1.358
 4623SOL    HW225901   3.779   0.582   1.407
 4624SOL     OW25902   7.069   4.802   0.344
 4624SOL    HW125903   7.028   4.735   0.406
 4624SOL    HW225904   7.131   4.755   0.281
 4625SOL     OW25905   1.039   8.022   5.368
 4625SOL    HW125906   1.032   8.035   5.467
 4625SOL    HW225907   1.001   8.101   5.320
 4626SOL     OW25908   4.772   2.040   1.147
 4626SOL    HW125909   4.820   2.113   1.197
 4626SOL    HW225910   4.840   1.980   1.104
 4627SOL     OW25911   4.158   0.886   0.280
 4627SOL    HW125912   4.226   0.952   0.311
 4627SOL    HW225913   4.105   0.853   0.359
 4628SOL     OW25914   3.309   7.030   0.860
 4628SOL    HW125915   3.332   6.934   0.841
 4628SOL    HW225916   3.214   7.046   0.836
 4629SOL     OW25917   5.212   7.726   6.365
 4629SOL    HW125918   5.249   7.662   6.432
 4629SOL    HW225919   5.262   7.812   6.369
 4630SOL     OW25920   4.211   1.239   1.085
 4630SOL    HW125921   4.178   1.251   0.991
 4630SOL    HW225922   4.138   1.266   1.149
 4631SOL     OW25923   4.512   8.165   1.098
 4631SOL    HW125924   4.530   8.208   1.187
 4631SOL    HW225925   4.519   8.065   1.108
 4632SOL     OW25926   0.484   0.966   5.774
 4632SOL    HW125927   0.555   0.925   5.717
 4632SOL    HW225928   0.443   0.895   5.832
 4633SOL     OW25929   3.499   6.191   5.972
 4633SOL    HW125930   3.470   6.095   5.972
 4633SOL    HW225931   3.450   6.241   6.043
 4634SOL     OW25932   0.710   4.827   0.648
 4634SOL    HW125933   0.754   4.850   0.561
 4634SOL    HW225934   0.723   4.730   0.668
 4635SOL     OW25935   4.971   3.086   1.174
 4635SOL    HW125936   4.994   3.003   1.225
 4635SOL    HW225937   4.978   3.166   1.234
 4636SOL     OW25938   6.582   1.499   6.407
 4636SOL    HW125939   6.629   1.416   6.439
 4636SOL    HW225940   6.550   1.551   6.486
 4637SOL     OW25941   5.735   0.494   6.158
 4637SOL    HW125942   5.732   0.458   6.252
 4637SOL    HW225943   5.754   0.420   6.094
 4638SOL     OW25944   2.447   0.211   0.669
 4638SOL    HW125945   2.359   0.175   0.700
 4638SOL    HW225946   2.520   0.150   0.700
 4639SOL     OW25947   8.758   4.656   1.122
 4639SOL    HW125948   8.773   4.574   1.066
 4639SOL    HW225949   8.687   4.638   1.190
 4640SOL     OW25950   7.551   1.424   0.253
 4640SOL    HW125951   7.623   1.354   0.254
 4640SOL    HW225952   7.565   1.486   0.330
 4641SOL     OW25953   7.868   5.763   5.876
 4641SOL    HW125954   7.923   5.791   5.797
 4641SOL    HW225955   7.779   5.730   5.844
 4642SOL     OW25956   6.948   4.050   1.729
 4642SOL    HW125957   6.859   4.086   1.758
 4642SOL    HW225958   6.993   4.118   1.671
 4643SOL     OW25959   1.102   2.360   5.976
 4643SOL    HW125960   1.189   2.357   6.025
 4643SOL    HW225961   1.111   2.313   5.888
 4644SOL     OW25962   8.021   7.448   1.360
 4644SOL    HW125963   8.104   7.421   1.409
 4644SOL    HW225964   7.957   7.490   1.423
 4645SOL     OW25965   6.165   6.919   1.492
 4645SOL    HW125966   6.162   6.933   1.591
 4645SOL    HW225967   6.207   6.830   1.472
 4646SOL     OW25968   2.298  -0.006   6.634
 4646SOL    HW125969   2.331   0.053   6.560
 4646SOL    HW225970   2.316  -0.101   6.611
 4647SOL     OW25971   6.184   0.261   1.030
 4647SOL    HW125972   6.244   0.224   0.960
 4647SOL    HW225973   6.094   0.281   0.990
 4648SOL     OW25974   2.556   2.048   6.391
 4648SOL    HW125975   2.637   2.011   6.346
 4648SOL    HW225976   2.474   2.016   6.344
 4649SOL     OW25977   5.549   4.292   1.288
 4649SOL    HW125978   5.624   4.357   1.290
 4649SOL    HW225979   5.466   4.339   1.256
 4650SOL     OW25980   1.237   7.289   1.845
 4650SOL    HW125981   1.226   7.383   1.879
 4650SOL    HW225982   1.204   7.224   1.913
 4651SOL     OW25983   6.383   3.557   1.311
 4651SOL    HW125984   6.394   3.656   1.315
 4651SOL    HW225985   6.462   3.513   1.354
 4652SOL     OW25986   5.367   0.399   6.057
 4652SOL    HW125987   5.295   0.370   6.120
 4652SOL    HW225988   5.405   0.487   6.088
 4653SOL     OW25989   5.979   2.478   2.087
 4653SOL    HW125990   6.029   2.562   2.063
 4653SOL    HW225991   5.914   2.498   2.160
 4654SOL     OW25992   2.771   4.135   6.538
 4654SOL    HW125993   2.683   4.181   6.531
 4654SOL    HW225994   2.834   4.173   6.470
 4655SOL     OW25995   1.090   2.675   1.484
 4655SOL    HW125996   1.072   2.679   1.582
 4655SOL    HW225997   1.023   2.730   1.436
 4656SOL     OW25998   0.815   6.949   0.621
 4656SOL    HW125999   0.912   6.964   0.640
 4656SOL    HW226000   0.777   6.887   0.689
 4657SOL     OW26001   5.236   6.471   6.587
 4657SOL    HW126002   5.217   6.411   6.509
 4657SOL    HW226003   5.335   6.480   6.598
 4658SOL     OW26004   7.192   1.978   1.926
 4658SOL    HW126005   7.260   1.913   1.892
 4658SOL    HW226006   7.133   1.934   1.993
 4659SOL     OW26007   7.009   3.345   6.333
 4659SOL    HW126008   6.943   3.325   6.261
 4659SOL    HW226009   6.973   3.417   6.392
 4660SOL     OW26010   1.755   5.281   5.969
 4660SOL    HW126011   1.836   5.236   5.932
 4660SOL    HW226012   1.780   5.333   6.051
 4661SOL     OW26013   7.226   7.110   5.894
 4661SOL    HW126014   7.289   7.056   5.950
 4661SOL    HW226015   7.195   7.190   5.947
 4662SOL     OW26016   1.854  -0.030   0.447
 4662SOL    HW126017   1.913   0.050   0.460
 4662SOL    HW226018   1.780  -0.027   0.514
 4663SOL     OW26019   0.298   3.040   1.138
 4663SOL    HW126020   0.228   2.969   1.132
 4663SOL    HW226021   0.334   3.044   1.231
 4664SOL     OW26022   7.552   2.681   5.804
 4664SOL    HW126023   7.507   2.679   5.715
 4664SOL    HW226024   7.551   2.774   5.840
 4665SOL     OW26025   2.689   7.957   5.864
 4665SOL    HW126026   2.758   7.928   5.797
 4665SOL    HW226027   2.655   7.877   5.914
 4666SOL     OW26028   5.802   2.236   0.715
 4666SOL    HW126029   5.871   2.307   0.727
 4666SOL    HW226030   5.714   2.279   0.694
 4667SOL     OW26031   4.429   6.374   0.903
 4667SOL    HW126032   4.510   6.388   0.846
 4667SOL    HW226033   4.364   6.448   0.887
 4668SOL     OW26034   0.508   5.072   6.005
 4668SOL    HW126035   0.577   5.000   6.015
 4668SOL    HW226036   0.490   5.086   5.908
 4669SOL     OW26037   6.559   7.316   0.827
 4669SOL    HW126038   6.629   7.264   0.875
 4669SOL    HW226039   6.602   7.381   0.765
 4670SOL     OW26040   7.760   4.949   0.660
 4670SOL    HW126041   7.699   4.882   0.702
 4670SOL    HW226042   7.760   4.936   0.561
 4671SOL     OW26043   6.373   8.135   6.307
 4671SOL    HW126044   6.329   8.046   6.292
 4671SOL    HW226045   6.421   8.134   6.395
 4672SOL     OW26046   8.200   5.373   0.505
 4672SOL    HW126047   8.205   5.375   0.405
 4672SOL    HW226048   8.104   5.362   0.533
 4673SOL     OW26049   3.497   7.981   6.176
 4673SOL    HW126050   3.503   7.883   6.158
 4673SOL    HW226051   3.570   8.028   6.127
 4674SOL     OW26052   8.796   1.543   0.757
 4674SOL    HW126053   8.885   1.554   0.803
 4674SOL    HW226054   8.758   1.454   0.779
 4675SOL     OW26055   4.838   2.494   6.174
 4675SOL    HW126056   4.927   2.474   6.131
 4675SOL    HW226057   4.841   2.584   6.216
 4676SOL     OW26058   3.238   4.600   1.176
 4676SOL    HW126059   3.285   4.658   1.110
 4676SOL    HW226060   3.226   4.508   1.137
 4677SOL     OW26061   0.844   7.061   0.378
 4677SOL    HW126062   0.779   7.136   0.364
 4677SOL    HW226063   0.817   7.008   0.459
 4678SOL     OW26064   4.580   5.511   2.059
 4678SOL    HW126065   4.657   5.471   2.109
 4678SOL    HW226066   4.498   5.455   2.076
 4679SOL     OW26067   0.594   1.508   6.865
 4679SOL    HW126068   0.579   1.410   6.870
 4679SOL    HW226069   0.591   1.547   6.958
 4680SOL     OW26070   6.063   5.618   2.025
 4680SOL    HW126071   6.108   5.534   2.056
 4680SOL    HW226072   5.969   5.620   2.059
 4681SOL     OW26073   2.377   7.183   1.020
 4681SOL    HW126074   2.338   7.160   0.931
 4681SOL    HW226075   2.313   7.155   1.092
 4682SOL     OW26076   6.117   2.288   5.984
 4682SOL    HW126077   6.133   2.271   5.887
 4682SOL    HW226078   6.030   2.246   6.011
 4683SOL     OW26079   8.115   2.138   0.884
 4683SOL    HW126080   8.206   2.130   0.844
 4683SOL    HW226081   8.118   2.113   0.981
 4684SOL     OW26082   0.289   8.262   5.626
 4684SOL    HW126083   0.220   8.301   5.564
 4684SOL    HW226084   0.368   8.323   5.632
 4685SOL     OW26085   0.866   4.001   6.472
 4685SOL    HW126086   0.819   4.071   6.419
 4685SOL    HW226087   0.964   4.003   6.450
 4686SOL     OW26088   8.222   2.051   6.386
 4686SOL    HW126089   8.282   1.986   6.433
 4686SOL    HW226090   8.255   2.065   6.293
 4687SOL     OW26091   1.916   2.694   1.291
 4687SOL    HW126092   1.981   2.769   1.304
 4687SOL    HW226093   1.886   2.660   1.381
 4688SOL     OW26094   0.816   7.940   6.693
 4688SOL    HW126095   0.828   7.963   6.790
 4688SOL    HW226096   0.906   7.920   6.653
 4689SOL     OW26097   0.122   0.951   1.522
 4689SOL    HW126098   0.032   0.929   1.484
 4689SOL    HW226099   0.122   0.930   1.620
 4690SOL     OW26100   6.557   2.626   1.684
 4690SOL    HW126101   6.530   2.547   1.739
 4690SOL    HW226102   6.572   2.705   1.744
 4691SOL     OW26103   2.572   5.153   0.567
 4691SOL    HW126104   2.640   5.160   0.494
 4691SOL    HW226105   2.488   5.115   0.531
 4692SOL     OW26106   6.453   7.006   1.354
 4692SOL    HW126107   6.441   7.018   1.255
 4692SOL    HW226108   6.363   6.995   1.397
 4693SOL     OW26109   6.793   3.826   6.305
 4693SOL    HW126110   6.825   3.750   6.248
 4693SOL    HW226111   6.806   3.802   6.402
 4694SOL     OW26112   6.357   3.962   5.842
 4694SOL    HW126113   6.452   3.934   5.831
 4694SOL    HW226114   6.297   3.892   5.802
 4695SOL     OW26115   5.803   7.164   0.249
 4695SOL    HW126116   5.810   7.183   0.347
 4695SOL    HW226117   5.894   7.161   0.208
 4696SOL     OW26118   4.675   4.026   6.693
 4696SOL    HW126119   4.764   4.050   6.654
 4696SOL    HW226120   4.637   4.105   6.742
 4697SOL     OW26121   2.682   5.677   6.792
 4697SOL    HW126122   2.697   5.614   6.868
 4697SOL    HW226123   2.685   5.771   6.827
 4698SOL     OW26124   3.181   7.677   1.723
 4698SOL    HW126125   3.136   7.589   1.734
 4698SOL    HW226126   3.228   7.680   1.635
 4699SOL     OW26127   7.882   3.814   1.664
 4699SOL    HW126128   7.892   3.773   1.573
 4699SOL    HW226129   7.944   3.892   1.672
 4700SOL     OW26130   0.705   6.712   5.769
 4700SOL    HW126131   0.664   6.624   5.794
 4700SOL    HW226132   0.737   6.708   5.674
 4701SOL     OW26133   2.095   6.755   6.530
 4701SOL    HW126134   2.004   6.718   6.547
 4701SOL    HW226135   2.106   6.774   6.432
 4702SOL     OW26136   1.437   7.670   5.731
 4702SOL    HW126137   1.350   7.717   5.724
 4702SOL    HW226138   1.463   7.633   5.642
 4703SOL     OW26139   1.856   2.560   1.508
 4703SOL    HW126140   1.809   2.503   1.440
 4703SOL    HW226141   1.894   2.501   1.580
 4704SOL     OW26142   3.159   2.225   2.725
 4704SOL    HW126143   3.220   2.260   2.797
 4704SOL    HW226144   3.099   2.299   2.694
 4705SOL     OW26145   6.299   4.357   4.854
 4705SOL    HW126146   6.208   4.392   4.830
 4705SOL    HW226147   6.351   4.429   4.902
 4706SOL     OW26148   0.745   3.030   0.929
 4706SOL    HW126149   0.676   3.099   0.950
 4706SOL    HW226150   0.711   2.970   0.857
 4707SOL     OW26151   2.615   2.055   0.394
 4707SOL    HW126152   2.641   2.107   0.475
 4707SOL    HW226153   2.675   1.976   0.384
 4708SOL     OW26154   1.475   2.625   4.759
 4708SOL    HW126155   1.534   2.547   4.743
 4708SOL    HW226156   1.528   2.700   4.798
 4709SOL     OW26157   3.816   6.841   6.572
 4709SOL    HW126158   3.804   6.779   6.650
 4709SOL    HW226159   3.869   6.920   6.601
 4710SOL     OW26160   8.096   7.145   5.586
 4710SOL    HW126161   8.056   7.226   5.542
 4710SOL    HW226162   8.136   7.086   5.517
 4711SOL     OW26163   4.671   6.629   4.871
 4711SOL    HW126164   4.638   6.716   4.835
 4711SOL    HW226165   4.605   6.557   4.848
 4712SOL     OW26166   7.885   7.812   2.205
 4712SOL    HW126167   7.952   7.754   2.250
 4712SOL    HW226168   7.795   7.769   2.208
 4713SOL     OW26169   8.238   6.752   0.740
 4713SOL    HW126170   8.265   6.805   0.659
 4713SOL    HW226171   8.190   6.669   0.711
 4714SOL     OW26172   4.221   3.726   0.728
 4714SOL    HW126173   4.235   3.668   0.808
 4714SOL    HW226174   4.257   3.681   0.647
 4715SOL     OW26175   8.393   3.260   5.382
 4715SOL    HW126176   8.401   3.336   5.317
 4715SOL    HW226177   8.395   3.173   5.332
 4716SOL     OW26178   3.739   3.754   5.963
 4716SOL    HW126179   3.749   3.776   5.866
 4716SOL    HW226180   3.765   3.659   5.978
 4717SOL     OW26181   2.227   3.862   6.929
 4717SOL    HW126182   2.201   3.765   6.921
 4717SOL    HW226183   2.198   3.897   7.018
 4718SOL     OW26184   7.444   4.636   5.765
 4718SOL    HW126185   7.433   4.538   5.777
 4718SOL    HW226186   7.396   4.665   5.682
 4719SOL     OW26187   1.873   1.130   0.907
 4719SOL    HW126188   1.883   1.032   0.886
 4719SOL    HW226189   1.825   1.141   0.994
 4720SOL     OW26190   2.433   4.628   1.586
 4720SOL    HW126191   2.476   4.585   1.506
 4720SOL    HW226192   2.341   4.660   1.562
 4721SOL     OW26193   2.784   6.865   2.196
 4721SOL    HW126194   2.749   6.957   2.214
 4721SOL    HW226195   2.866   6.849   2.251
 4722SOL     OW26196   0.686   5.082   6.285
 4722SOL    HW126197   0.638   4.995   6.298
 4722SOL    HW226198   0.656   5.124   6.200
 4723SOL     OW26199   3.833   1.523   6.726
 4723SOL    HW126200   3.902   1.580   6.770
 4723SOL    HW226201   3.867   1.491   6.638
 4724SOL     OW26202   5.536   2.930   6.458
 4724SOL    HW126203   5.540   3.008   6.520
 4724SOL    HW226204   5.468   2.947   6.387
 4725SOL     OW26205   6.620   1.782   0.722
 4725SOL    HW126206   6.693   1.753   0.784
 4725SOL    HW226207   6.548   1.713   0.719
 4726SOL     OW26208   0.415   2.029   6.960
 4726SOL    HW126209   0.338   2.046   7.022
 4726SOL    HW226210   0.433   2.112   6.907
 4727SOL     OW26211   9.363   7.217   1.196
 4727SOL    HW126212   9.300   7.184   1.266
 4727SOL    HW226213   9.453   7.232   1.236
 4728SOL     OW26214   5.919   0.312   5.955
 4728SOL    HW126215   5.939   0.242   5.888
 4728SOL    HW226216   5.933   0.402   5.915
 4729SOL     OW26217   1.327   1.316   0.930
 4729SOL    HW126218   1.228   1.304   0.926
 4729SOL    HW226219   1.367   1.248   0.991
 4730SOL     OW26220   6.493   1.797   6.211
 4730SOL    HW126221   6.525   1.808   6.117
 4730SOL    HW226222   6.520   1.707   6.245
 4731SOL     OW26223   0.693   2.819   0.769
 4731SOL    HW126224   0.606   2.789   0.808
 4731SOL    HW226225   0.690   2.811   0.669
 4732SOL     OW26226   6.957   2.869   6.302
 4732SOL    HW126227   7.028   2.928   6.339
 4732SOL    HW226228   6.873   2.880   6.355
 4733SOL     OW26229   2.148   3.969   0.432
 4733SOL    HW126230   2.207   3.902   0.477
 4733SOL    HW226231   2.085   4.009   0.499
 4734SOL     OW26232   9.289   8.131   6.412
 4734SOL    HW126233   9.228   8.208   6.432
 4734SOL    HW226234   9.360   8.161   6.348
 4735SOL     OW26235   0.751   7.073   0.962
 4735SOL    HW126236   0.800   7.042   1.044
 4735SOL    HW226237   0.656   7.045   0.967
 4736SOL     OW26238   2.461   1.953   2.100
 4736SOL    HW126239   2.425   1.934   2.192
 4736SOL    HW226240   2.443   2.049   2.077
 4737SOL     OW26241   1.418   0.453   6.520
 4737SOL    HW126242   1.489   0.389   6.490
 4737SOL    HW226243   1.328   0.412   6.503
 4738SOL     OW26244   2.503   4.930   1.502
 4738SOL    HW126245   2.459   5.005   1.551
 4738SOL    HW226246   2.512   4.851   1.562
 4739SOL     OW26247   2.988   4.583   6.673
 4739SOL    HW126248   2.901   4.591   6.625
 4739SOL    HW226249   3.053   4.649   6.635
 4740SOL     OW26250   5.584   0.481   0.947
 4740SOL    HW126251   5.637   0.462   1.030
 4740SOL    HW226252   5.551   0.575   0.949
 4741SOL     OW26253   1.680   0.759   4.943
 4741SOL    HW126254   1.635   0.671   4.937
 4741SOL    HW226255   1.654   0.815   4.864
 4742SOL     OW26256   8.540   5.453   5.778
 4742SOL    HW126257   8.632   5.491   5.788
 4742SOL    HW226258   8.539   5.388   5.702
 4743SOL     OW26259   0.680   0.282   1.991
 4743SOL    HW126260   0.760   0.332   2.025
 4743SOL    HW226261   0.597   0.317   2.035
 4744SOL     OW26262   1.710   6.454   0.350
 4744SOL    HW126263   1.646   6.452   0.427
 4744SOL    HW226264   1.661   6.480   0.267
 4745SOL     OW26265   9.430   0.130   6.952
 4745SOL    HW126266   9.512   0.097   6.907
 4745SOL    HW226267   9.353   0.125   6.888
 4746SOL     OW26268   1.297   3.551   0.530
 4746SOL    HW126269   1.325   3.646   0.546
 4746SOL    HW226270   1.369   3.502   0.481
 4747SOL     OW26271   4.969   0.488   1.910
 4747SOL    HW126272   5.003   0.399   1.879
 4747SOL    HW226273   5.045   0.548   1.932
 4748SOL     OW26274   6.684   1.310   2.224
 4748SOL    HW126275   6.697   1.322   2.322
 4748SOL    HW226276   6.682   1.213   2.202
 4749SOL     OW26277   3.439   0.851   0.758
 4749SOL    HW126278   3.528   0.827   0.717
 4749SOL    HW226279   3.439   0.948   0.781
 4750SOL     OW26280   4.830   7.857   1.574
 4750SOL    HW126281   4.825   7.866   1.474
 4750SOL    HW226282   4.907   7.798   1.599
 4751SOL     OW26283   2.776   1.762   1.705
 4751SOL    HW126284   2.868   1.785   1.736
 4751SOL    HW226285   2.762   1.664   1.711
 4752SOL     OW26286   6.547   3.100   6.876
 4752SOL    HW126287   6.463   3.149   6.899
 4752SOL    HW226288   6.550   3.082   6.778
 4753SOL     OW26289   9.214   1.682   0.795
 4753SOL    HW126290   9.201   1.727   0.707
 4753SOL    HW226291   9.173   1.737   0.868
 4754SOL     OW26292   3.372   3.498   1.536
 4754SOL    HW126293   3.403   3.506   1.631
 4754SOL    HW226294   3.426   3.428   1.489
 4755SOL     OW26295   1.820   6.102   6.637
 4755SOL    HW126296   1.882   6.175   6.606
 4755SOL    HW226297   1.834   6.021   6.580
 4756SOL     OW26298   2.372   4.215   0.770
 4756SOL    HW126299   2.462   4.244   0.736
 4756SOL    HW226300   2.323   4.294   0.804
 4757SOL     OW26301   4.108   5.539   5.919
 4757SOL    HW126302   4.158   5.488   5.849
 4757SOL    HW226303   4.021   5.571   5.882
 4758SOL     OW26304   5.207   1.221   6.849
 4758SOL    HW126305   5.211   1.125   6.875
 4758SOL    HW226306   5.298   1.261   6.855
 4759SOL     OW26307   2.536   3.840   6.150
 4759SOL    HW126308   2.463   3.811   6.088
 4759SOL    HW226309   2.497   3.876   6.235
 4760SOL     OW26310   2.162   4.598   5.380
 4760SOL    HW126311   2.142   4.531   5.309
 4760SOL    HW226312   2.252   4.577   5.420
 4761SOL     OW26313   6.254   4.153   1.348
 4761SOL    HW126314   6.314   4.230   1.326
 4761SOL    HW226315   6.213   4.168   1.438
 4762SOL     OW26316   8.719   4.230   1.105
 4762SOL    HW126317   8.641   4.172   1.128
 4762SOL    HW226318   8.804   4.182   1.128
 4763SOL     OW26319   7.022   0.389   5.813
 4763SOL    HW126320   7.036   0.487   5.828
 4763SOL    HW226321   6.952   0.376   5.742
 4764SOL     OW26322   5.462   0.358   5.615
 4764SOL    HW126323   5.391   0.368   5.685
 4764SOL    HW226324   5.485   0.448   5.578
 4765SOL     OW26325   9.155   7.048   6.092
 4765SOL    HW126326   9.182   7.091   6.006
 4765SOL    HW226327   9.056   7.052   6.101
 4766SOL     OW26328   3.432   6.336   0.401
 4766SOL    HW126329   3.475   6.417   0.441
 4766SOL    HW226330   3.346   6.317   0.448
 4767SOL     OW26331   2.687   6.428   1.365
 4767SOL    HW126332   2.687   6.368   1.285
 4767SOL    HW226333   2.728   6.380   1.442
 4768SOL     OW26334   6.241   0.365   6.338
 4768SOL    HW126335   6.219   0.290   6.275
 4768SOL    HW226336   6.335   0.354   6.371
 4769SOL     OW26337   4.932   2.640   6.795
 4769SOL    HW126338   4.866   2.592   6.852
 4769SOL    HW226339   4.988   2.701   6.852
 4770SOL     OW26340   6.874   6.160   0.557
 4770SOL    HW126341   6.971   6.163   0.579
 4770SOL    HW226342   6.848   6.244   0.510
 4771SOL     OW26343   3.815   6.870   1.393
 4771SOL    HW126344   3.800   6.773   1.411
 4771SOL    HW226345   3.793   6.923   1.475
 4772SOL     OW26346   7.303   7.610   6.077
 4772SOL    HW126347   7.383   7.553   6.059
 4772SOL    HW226348   7.236   7.597   6.003
 4773SOL     OW26349   9.460   7.538   5.379
 4773SOL    HW126350   9.458   7.523   5.477
 4773SOL    HW226351   9.443   7.452   5.331
 4774SOL     OW26352   7.940   3.244   6.633
 4774SOL    HW126353   7.861   3.280   6.684
 4774SOL    HW226354   8.021   3.300   6.653
 4775SOL     OW26355   2.226   7.776   1.418
 4775SOL    HW126356   2.137   7.733   1.430
 4775SOL    HW226357   2.274   7.778   1.506
 4776SOL     OW26358   6.151   1.609   6.407
 4776SOL    HW126359   6.137   1.568   6.316
 4776SOL    HW226360   6.148   1.537   6.476
 4777SOL     OW26361   2.173   0.181   0.811
 4777SOL    HW126362   2.127   0.131   0.738
 4777SOL    HW226363   2.167   0.129   0.897
 4778SOL     OW26364   6.070   1.721   1.578
 4778SOL    HW126365   6.097   1.811   1.610
 4778SOL    HW226366   6.026   1.671   1.653
 4779SOL     OW26367   9.280   1.217   1.278
 4779SOL    HW126368   9.249   1.130   1.318
 4779SOL    HW226369   9.337   1.266   1.344
 4780SOL     OW26370   7.897   7.284   6.497
 4780SOL    HW126371   7.952   7.201   6.492
 4780SOL    HW226372   7.923   7.337   6.578
 4781SOL     OW26373   0.684   7.388   0.639
 4781SOL    HW126374   0.606   7.357   0.694
 4781SOL    HW226375   0.677   7.486   0.623
 4782SOL     OW26376   6.691   7.740   1.161
 4782SOL    HW126377   6.761   7.668   1.169
 4782SOL    HW226378   6.683   7.768   1.065
 4783SOL     OW26379   5.028   4.969   0.960
 4783SOL    HW126380   4.951   4.988   0.899
 4783SOL    HW226381   5.003   4.991   1.054
 4784SOL     OW26382   8.069   1.999   1.448
 4784SOL    HW126383   8.075   2.096   1.469
 4784SOL    HW226384   8.038   1.986   1.354
 4785SOL     OW26385   9.204   8.276   1.514
 4785SOL    HW126386   9.130   8.326   1.469
 4785SOL    HW226387   9.276   8.340   1.541
 4786SOL     OW26388   2.324   2.623   0.785
 4786SOL    HW126389   2.320   2.714   0.825
 4786SOL    HW226390   2.400   2.618   0.720
 4787SOL     OW26391   9.160   1.815   0.550
 4787SOL    HW126392   9.076   1.866   0.531
 4787SOL    HW226393   9.237   1.878   0.551
 4788SOL     OW26394   4.947   0.808   0.556
 4788SOL    HW126395   4.907   0.716   0.558
 4788SOL    HW226396   4.876   0.875   0.577
 4789SOL     OW26397   7.204   7.231   6.476
 4789SOL    HW126398   7.146   7.292   6.420
 4789SOL    HW226399   7.266   7.287   6.531
 4790SOL     OW26400   9.493   6.901   5.371
 4790SOL    HW126401   9.502   6.981   5.312
 4790SOL    HW226402   9.499   6.817   5.316
 4791SOL     OW26403   7.714   0.431   0.726
 4791SOL    HW126404   7.668   0.493   0.790
 4791SOL    HW226405   7.812   0.429   0.747
 4792SOL     OW26406   4.383   4.127   0.716
 4792SOL    HW126407   4.304   4.188   0.719
 4792SOL    HW226408   4.365   4.050   0.655
 4793SOL     OW26409   2.820   5.756   0.528
 4793SOL    HW126410   2.744   5.694   0.543
 4793SOL    HW226411   2.872   5.766   0.613
 4794SOL     OW26412   5.846   6.388   0.371
 4794SOL    HW126413   5.941   6.371   0.395
 4794SOL    HW226414   5.797   6.422   0.452
 4795SOL     OW26415   2.190   2.882   0.385
 4795SOL    HW126416   2.109   2.852   0.435
 4795SOL    HW226417   2.180   2.857   0.289
 4796SOL     OW26418   3.154   6.761   1.180
 4796SOL    HW126419   3.250   6.778   1.158
 4796SOL    HW226420   3.117   6.839   1.231
 4797SOL     OW26421   3.665   0.947   6.377
 4797SOL    HW126422   3.577   0.993   6.389
 4797SOL    HW226423   3.718   0.955   6.462
 4798SOL     OW26424   0.935   3.709   6.318
 4798SOL    HW126425   1.000   3.705   6.394
 4798SOL    HW226426   0.878   3.790   6.326
 4799SOL     OW26427   7.994   8.318   6.426
 4799SOL    HW126428   7.949   8.309   6.515
 4799SOL    HW226429   7.925   8.330   6.354
 4800SOL     OW26430   1.061   4.077   0.372
 4800SOL    HW126431   1.147   4.105   0.328
 4800SOL    HW226432   1.076   3.993   0.424
 4801SOL     OW26433   8.198   5.113   5.360
 4801SOL    HW126434   8.143   5.089   5.279
 4801SOL    HW226435   8.143   5.102   5.442
 4802SOL     OW26436   1.771   1.119   6.803
 4802SOL    HW126437   1.744   1.176   6.881
 4802SOL    HW226438   1.857   1.154   6.765
 4803SOL     OW26439   2.174   0.433   6.725
 4803SOL    HW126440   2.100   0.366   6.721
 4803SOL    HW226441   2.142   0.520   6.689
 4804SOL     OW26442   5.144   7.148   6.536
 4804SOL    HW126443   5.204   7.114   6.464
 4804SOL    HW226444   5.097   7.071   6.579
 4805SOL     OW26445   7.200   5.308   5.807
 4805SOL    HW126446   7.282   5.346   5.764
 4805SOL    HW226447   7.203   5.208   5.803
 4806SOL     OW26448   0.136   0.701   6.432
 4806SOL    HW126449   0.037   0.701   6.450
 4806SOL    HW226450   0.181   0.642   6.500
 4807SOL     OW26451   3.203   1.468   0.465
 4807SOL    HW126452   3.138   1.466   0.390
 4807SOL    HW226453   3.290   1.430   0.434
 4808SOL     OW26454   2.181   5.423   5.678
 4808SOL    HW126455   2.151   5.517   5.692
 4808SOL    HW226456   2.253   5.400   5.744
 4809SOL     OW26457   4.012   4.394   1.994
 4809SOL    HW126458   3.999   4.490   1.971
 4809SOL    HW226459   3.925   4.346   1.986
 4810SOL     OW26460   5.605   3.479   1.021
 4810SOL    HW126461   5.639   3.456   1.112
 4810SOL    HW226462   5.547   3.560   1.027
 4811SOL     OW26463   1.717   0.846   0.873
 4811SOL    HW126464   1.647   0.867   0.941
 4811SOL    HW226465   1.673   0.809   0.791
 4812SOL     OW26466   3.713   1.291   6.319
 4812SOL    HW126467   3.626   1.336   6.335
 4812SOL    HW226468   3.697   1.197   6.288
 4813SOL     OW26469   2.132   6.740   6.250
 4813SOL    HW126470   2.095   6.818   6.200
 4813SOL    HW226471   2.197   6.691   6.193
 4814SOL     OW26472   5.897   0.857   1.234
 4814SOL    HW126473   5.866   0.763   1.254
 4814SOL    HW226474   5.996   0.859   1.229
 4815SOL     OW26475   7.135   1.924   5.652
 4815SOL    HW126476   7.131   2.021   5.675
 4815SOL    HW226477   7.101   1.910   5.559
 4816SOL     OW26478   4.719   8.249   0.477
 4816SOL    HW126479   4.634   8.287   0.514
 4816SOL    HW226480   4.732   8.282   0.383
 4817SOL     OW26481   5.030   7.750   5.939
 4817SOL    HW126482   4.972   7.700   6.004
 4817SOL    HW226483   5.126   7.728   5.956
 4818SOL     OW26484   2.245   1.702   6.274
 4818SOL    HW126485   2.149   1.714   6.297
 4818SOL    HW226486   2.254   1.677   6.178
 4819SOL     OW26487   5.096   6.699   6.298
 4819SOL    HW126488   5.031   6.637   6.341
 4819SOL    HW226489   5.080   6.792   6.331
 4820SOL     OW26490   9.535   7.905   5.845
 4820SOL    HW126491   9.579   7.995   5.848
 4820SOL    HW226492   9.501   7.888   5.753
 4821SOL     OW26493   1.383   5.891   6.944
 4821SOL    HW126494   1.446   5.966   6.963
 4821SOL    HW226495   1.322   5.916   6.869
 4822SOL     OW26496   1.077   4.063   5.902
 4822SOL    HW126497   1.052   4.117   5.982
 4822SOL    HW226498   1.162   4.097   5.864
 4823SOL     OW26499   8.762   7.383   4.337
 4823SOL    HW126500   8.854   7.396   4.375
 4823SOL    HW226501   8.769   7.334   4.250
 4824SOL     OW26502   3.548   6.020   6.831
 4824SOL    HW126503   3.480   6.054   6.766
 4824SOL    HW226504   3.526   6.053   6.922
 4825SOL     OW26505   4.019   7.782   1.259
 4825SOL    HW126506   4.076   7.760   1.180
 4825SOL    HW226507   4.077   7.802   1.338
 4826SOL     OW26508   7.214   1.567   6.823
 4826SOL    HW126509   7.224   1.530   6.915
 4826SOL    HW226510   7.242   1.498   6.756
 4827SOL     OW26511   8.484   6.348   6.290
 4827SOL    HW126512   8.521   6.396   6.211
 4827SOL    HW226513   8.513   6.393   6.374
 4828SOL     OW26514   0.523   6.222   5.655
 4828SOL    HW126515   0.595   6.260   5.713
 4828SOL    HW226516   0.457   6.174   5.712
 4829SOL     OW26517   5.850   0.790   6.967
 4829SOL    HW126518   5.934   0.736   6.962
 4829SOL    HW226519   5.854   0.865   6.901
 4830SOL     OW26520   0.259   0.366   6.278
 4830SOL    HW126521   0.268   0.465   6.265
 4830SOL    HW226522   0.349   0.323   6.268
 4831SOL     OW26523   8.508   1.085   1.090
 4831SOL    HW126524   8.560   1.107   1.172
 4831SOL    HW226525   8.450   1.163   1.065
 4832SOL     OW26526   0.424   2.205   1.050
 4832SOL    HW126527   0.484   2.127   1.067
 4832SOL    HW226528   0.476   2.290   1.060
 4833SOL     OW26529   4.168   1.313   5.983
 4833SOL    HW126530   4.085   1.339   6.031
 4833SOL    HW226531   4.163   1.342   5.888
 4834SOL     OW26532   1.403   6.371   5.566
 4834SOL    HW126533   1.449   6.320   5.639
 4834SOL    HW226534   1.460   6.368   5.484
 4835SOL     OW26535   3.631   4.953   6.569
 4835SOL    HW126536   3.650   4.907   6.656
 4835SOL    HW226537   3.576   5.035   6.586
 4836SOL     OW26538   1.110   6.876   6.798
 4836SOL    HW126539   1.157   6.818   6.732
 4836SOL    HW226540   1.079   6.960   6.752
 4837SOL     OW26541   3.045   8.064   6.335
 4837SOL    HW126542   3.052   8.164   6.344
 4837SOL    HW226543   2.976   8.030   6.399
 4838SOL     OW26544   6.586   1.243   1.467
 4838SOL    HW126545   6.653   1.189   1.416
 4838SOL    HW226546   6.519   1.182   1.509
 4839SOL     OW26547   5.595   7.205   5.832
 4839SOL    HW126548   5.550   7.116   5.826
 4839SOL    HW226549   5.537   7.275   5.791
 4840SOL     OW26550   9.455   6.671   6.134
 4840SOL    HW126551   9.398   6.604   6.181
 4840SOL    HW226552   9.428   6.763   6.162
 4841SOL     OW26553   5.769   2.976   1.053
 4841SOL    HW126554   5.868   2.974   1.063
 4841SOL    HW226555   5.740   2.910   0.984
 4842SOL     OW26556   7.613   7.443   0.907
 4842SOL    HW126557   7.676   7.386   0.959
 4842SOL    HW226558   7.520   7.408   0.917
 4843SOL     OW26559   2.349   1.334   1.327
 4843SOL    HW126560   2.407   1.413   1.345
 4843SOL    HW226561   2.264   1.342   1.378
 4844SOL     OW26562   4.895   6.521   6.274
 4844SOL    HW126563   4.843   6.529   6.359
 4844SOL    HW226564   4.837   6.482   6.203
 4845SOL     OW26565   5.823   8.129   1.117
 4845SOL    HW126566   5.915   8.127   1.078
 4845SOL    HW226567   5.805   8.218   1.157
 4846SOL     OW26568   2.568   5.948   1.347
 4846SOL    HW126569   2.626   6.025   1.374
 4846SOL    HW226570   2.577   5.874   1.414
 4847SOL     OW26571   6.201   2.131   6.380
 4847SOL    HW126572   6.231   2.073   6.304
 4847SOL    HW226573   6.263   2.209   6.389
 4848SOL     OW26574   2.102   6.464   0.786
 4848SOL    HW126575   2.133   6.540   0.729
 4848SOL    HW226576   2.035   6.497   0.853
 4849SOL     OW26577   3.500   0.079   5.588
 4849SOL    HW126578   3.452   0.163   5.614
 4849SOL    HW226579   3.576   0.062   5.650
 4850SOL     OW26580   1.027   0.125   0.546
 4850SOL    HW126581   1.072   0.202   0.592
 4850SOL    HW226582   1.092   0.081   0.484
 4851SOL     OW26583   4.681   2.910   2.084
 4851SOL    HW126584   4.635   2.911   2.173
 4851SOL    HW226585   4.677   3.002   2.043
 4852SOL     OW26586   8.187  -0.037   0.890
 4852SOL    HW126587   8.233  -0.125   0.875
 4852SOL    HW226588   8.194  -0.012   0.986
 4853SOL     OW26589   5.657   7.908   6.327
 4853SOL    HW126590   5.583   7.912   6.260
 4853SOL    HW226591   5.685   7.813   6.340
 4854SOL     OW26592   0.774   1.569   0.715
 4854SOL    HW126593   0.683   1.556   0.676
 4854SOL    HW226594   0.769   1.631   0.793
 4855SOL     OW26595   1.021   7.660   5.121
 4855SOL    HW126596   0.959   7.729   5.159
 4855SOL    HW226597   1.105   7.704   5.091
 4856SOL     OW26598   7.981   0.883   6.662
 4856SOL    HW126599   7.893   0.927   6.645
 4856SOL    HW226600   7.977   0.787   6.632
 4857SOL     OW26601   0.508   4.397   6.144
 4857SOL    HW126602   0.418   4.439   6.158
 4857SOL    HW226603   0.551   4.381   6.232
 4858SOL     OW26604   3.668   7.054   0.565
 4858SOL    HW126605   3.764   7.061   0.592
 4858SOL    HW226606   3.615   7.125   0.612
 4859SOL     OW26607   6.099   0.745   1.859
 4859SOL    HW126608   6.074   0.841   1.849
 4859SOL    HW226609   6.136   0.730   1.951
 4860SOL     OW26610   4.663   7.975   6.939
 4860SOL    HW126611   4.736   8.037   6.912
 4860SOL    HW226612   4.669   7.890   6.886
 4861SOL     OW26613   8.036   2.596   1.258
 4861SOL    HW126614   7.978   2.540   1.317
 4861SOL    HW226615   8.101   2.537   1.211
 4862SOL     OW26616   4.703   8.056   6.450
 4862SOL    HW126617   4.779   8.060   6.515
 4862SOL    HW226618   4.685   7.961   6.426
 4863SOL     OW26619   3.126   3.153   1.087
 4863SOL    HW126620   3.178   3.206   1.019
 4863SOL    HW226621   3.165   3.170   1.178
 4864SOL     OW26622   6.376   1.933   1.704
 4864SOL    HW126623   6.449   1.964   1.643
 4864SOL    HW226624   6.403   1.949   1.799
 4865SOL     OW26625   6.953   4.575   0.480
 4865SOL    HW126626   6.867   4.547   0.435
 4865SOL    HW226627   6.979   4.507   0.547
 4866SOL     OW26628   8.817   1.151   6.946
 4866SOL    HW126629   8.797   1.243   6.979
 4866SOL    HW226630   8.756   1.128   6.870
 4867SOL     OW26631   3.585   2.134   5.599
 4867SOL    HW126632   3.556   2.194   5.525
 4867SOL    HW226633   3.561   2.039   5.577
 4868SOL     OW26634   8.294   3.909   6.936
 4868SOL    HW126635   8.363   3.869   6.997
 4868SOL    HW226636   8.337   3.980   6.880
 4869SOL     OW26637   5.659   1.715   0.520
 4869SOL    HW126638   5.667   1.619   0.549
 4869SOL    HW226639   5.580   1.757   0.565
 4870SOL     OW26640   3.256   6.874   5.982
 4870SOL    HW126641   3.209   6.803   6.034
 4870SOL    HW226642   3.204   6.893   5.898
 4871SOL     OW26643   6.720   8.241   5.851
 4871SOL    HW126644   6.628   8.206   5.868
 4871SOL    HW226645   6.781   8.212   5.925
 4872SOL     OW26646   7.982   2.302   1.145
 4872SOL    HW126647   8.013   2.344   1.060
 4872SOL    HW226648   7.884   2.284   1.140
 4873SOL     OW26649   6.596   5.486   6.152
 4873SOL    HW126650   6.512   5.540   6.153
 4873SOL    HW226651   6.609   5.446   6.061
 4874SOL     OW26652   4.392   3.937   0.504
 4874SOL    HW126653   4.435   3.943   0.414
 4874SOL    HW226654   4.415   3.849   0.546
 4875SOL     OW26655   2.180   6.429   0.476
 4875SOL    HW126656   2.181   6.371   0.557
 4875SOL    HW226657   2.265   6.482   0.471
 4876SOL     OW26658   2.192   0.024   6.873
 4876SOL    HW126659   2.222   0.019   6.778
 4876SOL    HW226660   2.205   0.117   6.908
 4877SOL     OW26661   7.584   7.741   6.744
 4877SOL    HW126662   7.580   7.676   6.668
 4877SOL    HW226663   7.492   7.753   6.782
 4878SOL     OW26664   1.542   4.129   6.552
 4878SOL    HW126665   1.554   4.135   6.651
 4878SOL    HW226666   1.596   4.053   6.517
 4879SOL     OW26667   6.504   1.271   0.997
 4879SOL    HW126668   6.455   1.292   1.081
 4879SOL    HW226669   6.585   1.217   1.018
 4880SOL     OW26670   7.441   5.927   1.805
 4880SOL    HW126671   7.419   5.856   1.738
 4880SOL    HW226672   7.539   5.947   1.800
 4881SOL     OW26673   1.742   6.906   6.291
 4881SOL    HW126674   1.650   6.900   6.253
 4881SOL    HW226675   1.790   6.986   6.254
 4882SOL     OW26676   1.374   5.144   6.611
 4882SOL    HW126677   1.362   5.156   6.513
 4882SOL    HW226678   1.420   5.224   6.649
 4883SOL     OW26679   0.565  -0.014   6.232
 4883SOL    HW126680   0.552   0.055   6.303
 4883SOL    HW226681   0.653  -0.059   6.246
 4884SOL     OW26682   6.810   4.995   0.722
 4884SOL    HW126683   6.712   4.976   0.734
 4884SOL    HW226684   6.863   4.917   0.753
 4885SOL     OW26685   8.951   2.088   0.381
 4885SOL    HW126686   8.885   2.136   0.322
 4885SOL    HW226687   9.042   2.128   0.369
 4886SOL     OW26688   1.668   1.443   6.098
 4886SOL    HW126689   1.707   1.399   6.179
 4886SOL    HW226690   1.633   1.372   6.036
 4887SOL     OW26691   0.402   2.181   0.641
 4887SOL    HW126692   0.446   2.255   0.693
 4887SOL    HW226693   0.467   2.147   0.572
 4888SOL     OW26694   6.371   1.168   6.369
 4888SOL    HW126695   6.283   1.162   6.323
 4888SOL    HW226696   6.363   1.225   6.451
 4889SOL     OW26697   7.395   4.130   1.329
 4889SOL    HW126698   7.301   4.104   1.352
 4889SOL    HW226699   7.443   4.156   1.413
 4890SOL     OW26700   2.882   5.944   0.334
 4890SOL    HW126701   2.841   5.893   0.410
 4890SOL    HW226702   2.972   5.978   0.363
 4891SOL     OW26703   5.503   8.064   6.682
 4891SOL    HW126704   5.582   8.061   6.621
 4891SOL    HW226705   5.516   8.135   6.751
 4892SOL     OW26706   0.289   6.347   5.275
 4892SOL    HW126707   0.267   6.393   5.361
 4892SOL    HW226708   0.256   6.402   5.199
 4893SOL     OW26709   5.298   4.409   6.344
 4893SOL    HW126710   5.334   4.316   6.330
 4893SOL    HW226711   5.369   4.475   6.321
 4894SOL     OW26712   4.974   6.662   5.416
 4894SOL    HW126713   5.005   6.574   5.450
 4894SOL    HW226714   4.975   6.662   5.316
 4895SOL     OW26715   0.397   4.479   5.319
 4895SOL    HW126716   0.321   4.435   5.271
 4895SOL    HW226717   0.455   4.409   5.360
 4896SOL     OW26718   0.961   5.711   5.026
 4896SOL    HW126719   0.894   5.644   5.059
 4896SOL    HW226720   0.932   5.746   4.937
 4897SOL     OW26721   7.355   5.076   0.285
 4897SOL    HW126722   7.403   4.990   0.299
 4897SOL    HW226723   7.409   5.134   0.223
 4898SOL     OW26724   1.360   1.008   6.258
 4898SOL    HW126725   1.405   0.960   6.334
 4898SOL    HW226726   1.421   1.011   6.179
 4899SOL     OW26727   9.000   2.289   6.292
 4899SOL    HW126728   9.046   2.301   6.204
 4899SOL    HW226729   8.904   2.315   6.282
 4900SOL     OW26730   5.620   0.921   6.668
 4900SOL    HW126731   5.671   0.916   6.582
 4900SOL    HW226732   5.682   0.943   6.743
 4901SOL     OW26733   4.500   5.647   0.921
 4901SOL    HW126734   4.482   5.554   0.952
 4901SOL    HW226735   4.599   5.665   0.926
 4902SOL     OW26736   3.440   6.514   5.986
 4902SOL    HW126737   3.358   6.468   5.950
 4902SOL    HW226738   3.471   6.467   6.069
 4903SOL     OW26739   6.823   0.613   0.710
 4903SOL    HW126740   6.727   0.606   0.737
 4903SOL    HW226741   6.841   0.549   0.636
 4904SOL     OW26742   5.786   3.424   6.932
 4904SOL    HW126743   5.886   3.426   6.938
 4904SOL    HW226744   5.759   3.438   6.836
 4905SOL     OW26745   7.315   7.876   1.448
 4905SOL    HW126746   7.256   7.829   1.514
 4905SOL    HW226747   7.403   7.897   1.490
 4906SOL     OW26748   7.338   2.193   1.213
 4906SOL    HW126749   7.363   2.285   1.182
 4906SOL    HW226750   7.398   2.126   1.170
 4907SOL     OW26751   6.871   8.039   0.562
 4907SOL    HW126752   6.900   8.087   0.644
 4907SOL    HW226753   6.951   8.012   0.508
 4908SOL     OW26754   1.508   1.811   0.981
 4908SOL    HW126755   1.580   1.844   1.042
 4908SOL    HW226756   1.472   1.724   1.016
 4909SOL     OW26757   0.615   6.010   5.523
 4909SOL    HW126758   0.588   6.106   5.518
 4909SOL    HW226759   0.633   5.975   5.431
 4910SOL     OW26760   4.979   1.869   6.900
 4910SOL    HW126761   4.895   1.839   6.946
 4910SOL    HW226762   5.004   1.801   6.831
 4911SOL     OW26763   6.106   5.804   5.643
 4911SOL    HW126764   6.143   5.776   5.732
 4911SOL    HW226765   6.047   5.884   5.655
 4912SOL     OW26766   3.480   2.855   6.341
 4912SOL    HW126767   3.443   2.849   6.433
 4912SOL    HW226768   3.461   2.770   6.292
 4913SOL     OW26769   1.399   2.370   1.213
 4913SOL    HW126770   1.349   2.417   1.140
 4913SOL    HW226771   1.353   2.386   1.300
 4914SOL     OW26772   2.014   2.352   6.898
 4914SOL    HW126773   2.090   2.350   6.833
 4914SOL    HW226774   1.976   2.260   6.908
 4915SOL     OW26775   1.933   4.175   1.186
 4915SOL    HW126776   1.834   4.173   1.173
 4915SOL    HW226777   1.978   4.134   1.107
 4916SOL     OW26778   7.443   6.498   6.845
 4916SOL    HW126779   7.377   6.448   6.789
 4916SOL    HW226780   7.395   6.565   6.901
 4917SOL     OW26781   7.781   6.121   0.998
 4917SOL    HW126782   7.782   6.027   1.033
 4917SOL    HW226783   7.793   6.185   1.073
 4918SOL     OW26784   6.572   2.549   6.838
 4918SOL    HW126785   6.487   2.519   6.795
 4918SOL    HW226786   6.574   2.648   6.844
 4919SOL     OW26787   4.582   7.929   2.029
 4919SOL    HW126788   4.545   7.941   2.121
 4919SOL    HW226789   4.646   7.852   2.029
 4920SOL     OW26790   2.821   3.288   6.090
 4920SOL    HW126791   2.778   3.197   6.091
 4920SOL    HW226792   2.777   3.345   6.159
 4921SOL     OW26793   0.574   0.570   5.914
 4921SOL    HW126794   0.493   0.535   5.961
 4921SOL    HW226795   0.558   0.569   5.815
 4922SOL     OW26796   4.926   0.484   1.451
 4922SOL    HW126797   4.977   0.398   1.442
 4922SOL    HW226798   4.828   0.464   1.453
 4923SOL     OW26799   0.362   7.637   1.350
 4923SOL    HW126800   0.301   7.714   1.329
 4923SOL    HW226801   0.377   7.633   1.449
 4924SOL     OW26802   6.296   1.881   6.938
 4924SOL    HW126803   6.366   1.852   7.003
 4924SOL    HW226804   6.291   1.981   6.937
 4925SOL     OW26805   0.519   3.146   1.370
 4925SOL    HW126806   0.574   3.177   1.447
 4925SOL    HW226807   0.444   3.088   1.404
 4926SOL     OW26808   1.815   2.751   6.225
 4926SOL    HW126809   1.897   2.696   6.240
 4926SOL    HW226810   1.743   2.693   6.187
 4927SOL     OW26811   7.540   6.707   5.840
 4927SOL    HW126812   7.505   6.719   5.747
 4927SOL    HW226813   7.626   6.758   5.850
 4928SOL     OW26814   3.076   1.428   6.181
 4928SOL    HW126815   3.097   1.524   6.159
 4928SOL    HW226816   3.037   1.384   6.100
 4929SOL     OW26817   1.446   0.950   5.977
 4929SOL    HW126818   1.368   0.889   5.990
 4929SOL    HW226819   1.443   0.991   5.887
 4930SOL     OW26820   6.937   8.179   6.055
 4930SOL    HW126821   6.978   8.089   6.044
 4930SOL    HW226822   6.916   8.195   6.151
 4931SOL     OW26823   5.387   1.759   5.856
 4931SOL    HW126824   5.386   1.786   5.759
 4931SOL    HW226825   5.395   1.841   5.913
 4932SOL     OW26826   6.848   1.719   1.225
 4932SOL    HW126827   6.814   1.809   1.255
 4932SOL    HW226828   6.941   1.706   1.258
 4933SOL     OW26829   4.043   6.056   1.193
 4933SOL    HW126830   4.012   6.000   1.270
 4933SOL    HW226831   4.037   6.003   1.108
 4934SOL     OW26832   6.843   1.422   6.738
 4934SOL    HW126833   6.877   1.512   6.710
 4934SOL    HW226834   6.868   1.354   6.669
 4935SOL     OW26835   5.278   0.881   6.035
 4935SOL    HW126836   5.307   0.801   5.982
 4935SOL    HW226837   5.292   0.964   5.982
 4936SOL     OW26838   4.023   3.929   6.412
 4936SOL    HW126839   4.108   3.966   6.374
 4936SOL    HW226840   4.027   3.934   6.512
 4937SOL     OW26841   8.318   5.567   1.796
 4937SOL    HW126842   8.294   5.495   1.730
 4937SOL    HW226843   8.282   5.543   1.886
 4938SOL     OW26844   2.421   2.221   2.033
 4938SOL    HW126845   2.500   2.276   2.008
 4938SOL    HW226846   2.337   2.275   2.020
 4939SOL     OW26847   5.408   4.924   0.561
 4939SOL    HW126848   5.393   4.826   0.547
 4939SOL    HW226849   5.338   4.959   0.624
 4940SOL     OW26850   8.973   8.372   6.361
 4940SOL    HW126851   9.011   8.325   6.441
 4940SOL    HW226852   8.897   8.319   6.325
 4941SOL     OW26853   6.593   5.480   1.219
 4941SOL    HW126854   6.566   5.425   1.297
 4941SOL    HW226855   6.664   5.433   1.167
 4942SOL     OW26856   8.908   6.504   5.305
 4942SOL    HW126857   8.814   6.521   5.276
 4942SOL    HW226858   8.941   6.419   5.263
 4943SOL     OW26859   3.531   1.787   0.458
 4943SOL    HW126860   3.492   1.751   0.373
 4943SOL    HW226861   3.556   1.883   0.445
 4944SOL     OW26862   5.703   5.744   0.402
 4944SOL    HW126863   5.780   5.704   0.452
 4944SOL    HW226864   5.637   5.781   0.467
 4945SOL     OW26865   2.945   1.690   6.322
 4945SOL    HW126866   2.913   1.595   6.318
 4945SOL    HW226867   2.867   1.751   6.333
 4946SOL     OW26868   0.689   2.199   6.520
 4946SOL    HW126869   0.709   2.194   6.618
 4946SOL    HW226870   0.654   2.290   6.498
 4947SOL     OW26871   6.112   4.843   6.618
 4947SOL    HW126872   6.103   4.818   6.714
 4947SOL    HW226873   6.172   4.924   6.610
 4948SOL     OW26874   7.746   1.162   0.313
 4948SOL    HW126875   7.679   1.171   0.239
 4948SOL    HW226876   7.722   1.083   0.370
 4949SOL     OW26877   4.623   0.573   6.584
 4949SOL    HW126878   4.577   0.558   6.496
 4949SOL    HW226879   4.562   0.621   6.646
 4950SOL     OW26880   5.786   7.182   1.038
 4950SOL    HW126881   5.824   7.269   1.007
 4950SOL    HW226882   5.858   7.125   1.077
 4951SOL     OW26883   4.666   0.747   2.165
 4951SOL    HW126884   4.636   0.803   2.243
 4951SOL    HW226885   4.758   0.713   2.182
 4952SOL     OW26886   6.851   0.715   0.428
 4952SOL    HW126887   6.825   0.689   0.521
 4952SOL    HW226888   6.799   0.661   0.362
 4953SOL     OW26889   6.947   6.715   0.281
 4953SOL    HW126890   6.886   6.790   0.254
 4953SOL    HW226891   6.943   6.642   0.214
 4954SOL     OW26892   1.426   6.464   6.525
 4954SOL    HW126893   1.363   6.439   6.599
 4954SOL    HW226894   1.450   6.383   6.472
 4955SOL     OW26895   5.621   2.444   1.339
 4955SOL    HW126896   5.667   2.446   1.250
 4955SOL    HW226897   5.686   2.469   1.411
 4956SOL     OW26898   0.260   7.865   1.231
 4956SOL    HW126899   0.305   7.924   1.298
 4956SOL    HW226900   0.167   7.896   1.215
 4957SOL     OW26901   6.972   0.591   6.083
 4957SOL    HW126902   6.895   0.653   6.097
 4957SOL    HW226903   7.041   0.636   6.026
 4958SOL     OW26904   5.282  -0.052   6.041
 4958SOL    HW126905   5.185  -0.059   6.016
 4958SOL    HW226906   5.313  -0.141   6.075
 4959SOL     OW26907   8.062   4.419   6.772
 4959SOL    HW126908   8.063   4.332   6.822
 4959SOL    HW226909   8.009   4.409   6.688
 4960SOL     OW26910   4.370   5.401   6.116
 4960SOL    HW126911   4.298   5.334   6.096
 4960SOL    HW226912   4.331   5.493   6.119
 4961SOL     OW26913   7.794   0.427   1.214
 4961SOL    HW126914   7.856   0.374   1.271
 4961SOL    HW226915   7.701   0.390   1.222
 4962SOL     OW26916   6.172   0.803   1.287
 4962SOL    HW126917   6.253   0.813   1.230
 4962SOL    HW226918   6.188   0.732   1.355
 4963SOL     OW26919   0.217   3.408   5.574
 4963SOL    HW126920   0.182   3.444   5.488
 4963SOL    HW226921   0.176   3.318   5.592
 4964SOL     OW26922   7.891   8.012   1.377
 4964SOL    HW126923   7.841   8.028   1.462
 4964SOL    HW226924   7.847   7.939   1.325
 4965SOL     OW26925   4.660   0.460   1.473
 4965SOL    HW126926   4.650   0.552   1.435
 4965SOL    HW226927   4.584   0.403   1.442
 4966SOL     OW26928   1.699   7.008   5.853
 4966SOL    HW126929   1.681   6.965   5.941
 4966SOL    HW226930   1.617   7.057   5.822
 4967SOL     OW26931   2.432   5.225   6.846
 4967SOL    HW126932   2.454   5.223   6.748
 4967SOL    HW226933   2.515   5.238   6.899
 4968SOL     OW26934   0.532   6.710   0.944
 4968SOL    HW126935   0.627   6.722   0.916
 4968SOL    HW226936   0.481   6.666   0.870
 4969SOL     OW26937   4.825   6.460   0.924
 4969SOL    HW126938   4.916   6.472   0.884
 4969SOL    HW226939   4.755   6.484   0.855
 4970SOL     OW26940   4.019   2.312   6.126
 4970SOL    HW126941   4.058   2.278   6.040
 4970SOL    HW226942   3.948   2.378   6.107
 4971SOL     OW26943   5.264   4.523   6.580
 4971SOL    HW126944   5.179   4.575   6.572
 4971SOL    HW226945   5.285   4.479   6.493
 4972SOL     OW26946   6.550   0.609   6.151
 4972SOL    HW126947   6.475   0.613   6.216
 4972SOL    HW226948   6.568   0.700   6.113
 4973SOL     OW26949   0.234   5.926   5.388
 4973SOL    HW126950   0.331   5.939   5.410
 4973SOL    HW226951   0.200   6.008   5.342
 4974SOL     OW26952   5.954   7.264   6.182
 4974SOL    HW126953   5.946   7.168   6.206
 4974SOL    HW226954   6.049   7.285   6.157
 4975SOL     OW26955   4.358   2.117   2.227
 4975SOL    HW126956   4.301   2.191   2.261
 4975SOL    HW226957   4.367   2.125   2.127
 4976SOL     OW26958   5.662   1.514   6.474
 4976SOL    HW126959   5.716   1.528   6.556
 4976SOL    HW226960   5.618   1.424   6.478
 4977SOL     OW26961   2.779   0.973   2.469
 4977SOL    HW126962   2.717   0.981   2.391
 4977SOL    HW226963   2.789   0.876   2.493
 4978SOL     OW26964   6.106   1.140   6.290
 4978SOL    HW126965   6.098   1.067   6.222
 4978SOL    HW226966   6.048   1.118   6.369
 4979SOL     OW26967   1.705   2.868   5.139
 4979SOL    HW126968   1.713   2.959   5.179
 4979SOL    HW226969   1.796   2.825   5.136
 4980SOL     OW26970   4.142   3.830   0.338
 4980SOL    HW126971   4.047   3.820   0.308
 4980SOL    HW226972   4.184   3.907   0.290
 4981SOL     OW26973   7.898   1.334   1.661
 4981SOL    HW126974   7.817   1.287   1.698
 4981SOL    HW226975   7.911   1.420   1.710
 4982SOL     OW26976   8.419   3.618   6.793
 4982SOL    HW126977   8.456   3.711   6.785
 4982SOL    HW226978   8.320   3.621   6.776
 4983SOL     OW26979   6.605   2.176   6.814
 4983SOL    HW126980   6.698   2.210   6.827
 4983SOL    HW226981   6.568   2.214   6.729
 4984SOL     OW26982   5.061   6.133   1.379
 4984SOL    HW126983   5.112   6.050   1.359
 4984SOL    HW226984   4.982   6.111   1.437
 4985SOL     OW26985   7.933   6.394   6.235
 4985SOL    HW126986   7.951   6.296   6.233
 4985SOL    HW226987   7.853   6.415   6.179
 4986SOL     OW26988   2.769   0.523   1.056
 4986SOL    HW126989   2.817   0.601   1.016
 4986SOL    HW226990   2.671   0.531   1.037
 4987SOL     OW26991   8.635   6.451   6.086
 4987SOL    HW126992   8.671   6.466   5.994
 4987SOL    HW226993   8.680   6.373   6.128
 4988SOL     OW26994   6.345   3.636   0.662
 4988SOL    HW126995   6.300   3.547   0.673
 4988SOL    HW226996   6.312   3.681   0.579
 4989SOL     OW26997   6.622   5.016   5.966
 4989SOL    HW126998   6.560   5.049   5.896
 4989SOL    HW226999   6.710   4.993   5.924
 4990SOL     OW27000   4.262   6.310   6.012
 4990SOL    HW127001   4.228   6.309   6.106
 4990SOL    HW227002   4.201   6.257   5.953
 4991SOL     OW27003   4.863   7.268   1.170
 4991SOL    HW127004   4.894   7.176   1.197
 4991SOL    HW227005   4.792   7.298   1.233
 4992SOL     OW27006   8.589   0.184   6.287
 4992SOL    HW127007   8.548   0.272   6.312
 4992SOL    HW227008   8.534   0.110   6.327
 4993SOL     OW27009   1.166   5.936   4.972
 4993SOL    HW127010   1.115   5.985   4.902
 4993SOL    HW227011   1.218   5.862   4.930
 4994SOL     OW27012   1.077   3.912   5.632
 4994SOL    HW127013   1.053   3.897   5.536
 4994SOL    HW227014   1.055   4.007   5.657
 4995SOL     OW27015   5.219   5.926   1.383
 4995SOL    HW127016   5.287   5.922   1.456
 4995SOL    HW227017   5.144   5.862   1.404
 4996SOL     OW27018   8.585   4.343   5.957
 4996SOL    HW127019   8.583   4.394   5.871
 4996SOL    HW227020   8.676   4.304   5.971
 4997SOL     OW27021   6.580   6.943   6.746
 4997SOL    HW127022   6.656   6.995   6.708
 4997SOL    HW227023   6.551   6.873   6.682
 4998SOL     OW27024   4.938   6.451   1.629
 4998SOL    HW127025   5.015   6.493   1.677
 4998SOL    HW227026   4.942   6.352   1.640
 4999SOL     OW27027   8.674   4.363   6.247
 4999SOL    HW127028   8.641   4.457   6.238
 4999SOL    HW227029   8.765   4.363   6.289
 5000SOL     OW27030   3.185   3.521   1.332
 5000SOL    HW127031   3.240   3.507   1.415
 5000SOL    HW227032   3.088   3.512   1.355
 5001SOL     OW27033   8.782   3.787   0.243
 5001SOL    HW127034   8.796   3.692   0.215
 5001SOL    HW227035   8.862   3.820   0.293
 5002SOL     OW27036   6.999   6.641   0.838
 5002SOL    HW127037   6.949   6.689   0.911
 5002SOL    HW227038   6.981   6.686   0.751
 5003SOL     OW27039   3.460   6.659   6.590
 5003SOL    HW127040   3.464   6.733   6.657
 5003SOL    HW227041   3.548   6.611   6.587
 5004SOL     OW27042   0.661   6.851   1.496
 5004SOL    HW127043   0.622   6.880   1.583
 5004SOL    HW227044   0.758   6.831   1.508
 5005SOL     OW27045   4.965   2.991   6.751
 5005SOL    HW127046   4.973   2.961   6.656
 5005SOL    HW227047   5.012   2.926   6.811
 5006SOL     OW27048   6.955   6.266   6.236
 5006SOL    HW127049   7.020   6.236   6.166
 5006SOL    HW227050   6.875   6.206   6.235
 5007SOL     OW27051   2.194   3.497   0.604
 5007SOL    HW127052   2.238   3.531   0.521
 5007SOL    HW227053   2.258   3.502   0.681
 5008SOL     OW27054   0.524   3.702   1.008
 5008SOL    HW127055   0.585   3.725   0.932
 5008SOL    HW227056   0.476   3.617   0.987
 5009SOL     OW27057   7.510   3.711   2.150
 5009SOL    HW127058   7.503   3.635   2.214
 5009SOL    HW227059   7.442   3.781   2.174
 5010SOL     OW27060   5.565   5.247   6.283
 5010SOL    HW127061   5.586   5.163   6.233
 5010SOL    HW227062   5.472   5.242   6.319
 5011SOL     OW27063   3.525   1.504   1.096
 5011SOL    HW127064   3.547   1.431   1.161
 5011SOL    HW227065   3.474   1.576   1.143
 5012SOL     OW27066   7.055   1.656   1.403
 5012SOL    HW127067   7.049   1.728   1.472
 5012SOL    HW227068   7.123   1.588   1.433
 5013SOL     OW27069   0.843   4.236   0.361
 5013SOL    HW127070   0.750   4.200   0.356
 5013SOL    HW227071   0.907   4.160   0.369
 5014SOL     OW27072   0.603   4.803   6.329
 5014SOL    HW127073   0.546   4.722   6.344
 5014SOL    HW227074   0.646   4.798   6.239
 5015SOL     OW27075   6.838   5.425   1.046
 5015SOL    HW127076   6.889   5.357   1.098
 5015SOL    HW227077   6.826   5.394   0.951
 5016SOL     OW27078   1.055   3.030   0.293
 5016SOL    HW127079   0.966   2.996   0.261
 5016SOL    HW227080   1.104   2.956   0.339
 5017SOL     OW27081   1.170   7.697   6.414
 5017SOL    HW127082   1.238   7.770   6.423
 5017SOL    HW227083   1.118   7.689   6.498
 5018SOL     OW27084   3.663   6.792   5.322
 5018SOL    HW127085   3.692   6.888   5.318
 5018SOL    HW227086   3.743   6.734   5.333
 5019SOL     OW27087   7.252   5.957   5.405
 5019SOL    HW127088   7.300   5.999   5.328
 5019SOL    HW227089   7.292   5.868   5.424
 5020SOL     OW27090   7.798   7.850   6.367
 5020SOL    HW127091   7.897   7.855   6.357
 5020SOL    HW227092   7.763   7.776   6.309
 5021SOL     OW27093   2.685   5.546   5.172
 5021SOL    HW127094   2.696   5.509   5.264
 5021SOL    HW227095   2.775   5.562   5.131
 5022SOL     OW27096   4.191   0.585   5.891
 5022SOL    HW127097   4.129   0.576   5.969
 5022SOL    HW227098   4.152   0.649   5.825
 5023SOL     OW27099   3.543   7.378   0.410
 5023SOL    HW127100   3.448   7.403   0.427
 5023SOL    HW227101   3.584   7.341   0.493
 5024SOL     OW27102   8.064   7.177   5.166
 5024SOL    HW127103   8.029   7.252   5.110
 5024SOL    HW227104   8.005   7.165   5.246
 5025SOL     OW27105   0.777   3.065   1.357
 5025SOL    HW127106   0.817   3.157   1.360
 5025SOL    HW227107   0.682   3.072   1.327
 5026SOL     OW27108   4.445   4.481   6.804
 5026SOL    HW127109   4.506   4.557   6.781
 5026SOL    HW227110   4.368   4.480   6.740
 5027SOL     OW27111   5.333   8.085   5.645
 5027SOL    HW127112   5.323   8.172   5.692
 5027SOL    HW227113   5.279   8.087   5.560
 5028SOL     OW27114   6.640   3.972   5.197
 5028SOL    HW127115   6.588   4.025   5.130
 5028SOL    HW227116   6.611   3.877   5.194
 5029SOL     OW27117   7.820   6.253   6.719
 5029SOL    HW127118   7.778   6.322   6.659
 5029SOL    HW227119   7.912   6.282   6.744
 5030SOL     OW27120   5.045   1.288   5.855
 5030SOL    HW127121   5.022   1.316   5.762
 5030SOL    HW227122   4.961   1.273   5.907
 5031SOL     OW27123   4.042   6.396   1.753
 5031SOL    HW127124   4.122   6.440   1.712
 5031SOL    HW227125   4.050   6.297   1.743
 5032SOL     OW27126   4.378   0.886   1.338
 5032SOL    HW127127   4.295   0.878   1.283
 5032SOL    HW227128   4.354   0.888   1.435
 5033SOL     OW27129   1.966   4.941   6.120
 5033SOL    HW127130   1.892   4.949   6.053
 5033SOL    HW227131   2.052   4.969   6.077
 5034SOL     OW27132   0.835   5.339   5.503
 5034SOL    HW127133   0.881   5.264   5.551
 5034SOL    HW227134   0.759   5.303   5.448
 5035SOL     OW27135   6.206   1.252   1.255
 5035SOL    HW127136   6.301   1.282   1.264
 5035SOL    HW227137   6.150   1.294   1.327
 5036SOL     OW27138   1.703   8.325   0.833
 5036SOL    HW127139   1.648   8.359   0.757
 5036SOL    HW227140   1.751   8.402   0.877
 5037SOL     OW27141   2.278   4.876   6.613
 5037SOL    HW127142   2.374   4.860   6.634
 5037SOL    HW227143   2.271   4.943   6.538
 5038SOL     OW27144   1.410   0.103   5.069
 5038SOL    HW127145   1.491   0.045   5.067
 5038SOL    HW227146   1.352   0.078   5.146
 5039SOL     OW27147   4.113   0.207   1.189
 5039SOL    HW127148   4.153   0.193   1.280
 5039SOL    HW227149   4.064   0.294   1.187
 5040SOL     OW27150   3.398   2.036   0.498
 5040SOL    HW127151   3.466   2.037   0.571
 5040SOL    HW227152   3.338   2.115   0.507
 5041SOL     OW27153   2.777   1.138   6.548
 5041SOL    HW127154   2.685   1.121   6.513
 5041SOL    HW227155   2.826   1.200   6.486
 5042SOL     OW27156   2.429   6.419   6.316
 5042SOL    HW127157   2.509   6.364   6.344
 5042SOL    HW227158   2.423   6.501   6.372
 5043SOL     OW27159   7.951   7.215   4.795
 5043SOL    HW127160   7.889   7.137   4.792
 5043SOL    HW227161   7.899   7.299   4.777
 5044SOL     OW27162   5.795   8.098   0.288
 5044SOL    HW127163   5.841   8.166   0.231
 5044SOL    HW227164   5.797   8.009   0.242
 5045SOL     OW27165   0.171   1.907   1.639
 5045SOL    HW127166   0.108   1.879   1.712
 5045SOL    HW227167   0.264   1.913   1.676
 5046SOL     OW27168   4.652   6.673   6.544
 5046SOL    HW127169   4.690   6.765   6.544
 5046SOL    HW227170   4.727   6.606   6.544
 5047SOL     OW27171   0.937   3.850   1.591
 5047SOL    HW127172   0.840   3.857   1.567
 5047SOL    HW227173   0.950   3.777   1.658
 5048SOL     OW27174   8.375   6.442   5.086
 5048SOL    HW127175   8.310   6.487   5.025
 5048SOL    HW227176   8.451   6.406   5.032
 5049SOL     OW27177   3.108   1.390   6.883
 5049SOL    HW127178   3.101   1.356   6.789
 5049SOL    HW227179   3.196   1.363   6.922
 5050SOL     OW27180   9.241   8.084   5.961
 5050SOL    HW127181   9.335   8.109   5.939
 5050SOL    HW227182   9.182   8.164   5.951
 5051SOL     OW27183   0.666   3.294   6.313
 5051SOL    HW127184   0.595   3.254   6.372
 5051SOL    HW227185   0.707   3.221   6.257
 5052SOL     OW27186   0.959   2.865   1.047
 5052SOL    HW127187   1.046   2.882   1.001
 5052SOL    HW227188   0.890   2.928   1.012
 5053SOL     OW27189   5.716   2.603   1.537
 5053SOL    HW127190   5.617   2.611   1.525
 5053SOL    HW227191   5.756   2.694   1.546
 5054SOL     OW27192   9.594   4.591   5.365
 5054SOL    HW127193   9.625   4.531   5.291
 5054SOL    HW227194   9.509   4.636   5.337
 5055SOL     OW27195   7.129   1.871   1.600
 5055SOL    HW127196   7.098   1.953   1.553
 5055SOL    HW227197   7.221   1.886   1.636
 5056SOL     OW27198   3.486   7.075   6.641
 5056SOL    HW127199   3.421   7.150   6.652
 5056SOL    HW227200   3.532   7.082   6.553
 5057SOL     OW27201   0.701   1.394   0.493
 5057SOL    HW127202   0.677   1.459   0.421
 5057SOL    HW227203   0.799   1.402   0.513
 5058SOL     OW27204   0.927   3.282   0.340
 5058SOL    HW127205   0.961   3.218   0.271
 5058SOL    HW227206   0.879   3.232   0.412
 5059SOL     OW27207   3.529   6.403   6.224
 5059SOL    HW127208   3.503   6.438   6.314
 5059SOL    HW227209   3.596   6.330   6.235
 5060SOL     OW27210   7.339   3.912   1.802
 5060SOL    HW127211   7.314   3.848   1.874
 5060SOL    HW227212   7.415   3.969   1.833
 5061SOL     OW27213   6.051   3.331   0.970
 5061SOL    HW127214   5.956   3.308   0.949
 5061SOL    HW227215   6.079   3.411   0.918
 5062SOL     OW27216   0.793   4.641   0.913
 5062SOL    HW127217   0.781   4.577   0.989
 5062SOL    HW227218   0.891   4.652   0.894
 5063SOL     OW27219   4.797   3.612   6.387
 5063SOL    HW127220   4.773   3.521   6.354
 5063SOL    HW227221   4.838   3.604   6.478
 5064SOL     OW27222   4.830   2.558   1.538
 5064SOL    HW127223   4.862   2.607   1.619
 5064SOL    HW227224   4.864   2.464   1.540
 5065SOL     OW27225   2.714   8.260   1.207
 5065SOL    HW127226   2.750   8.179   1.160
 5065SOL    HW227227   2.786   8.301   1.262
 5066SOL     OW27228   4.057   4.117   2.193
 5066SOL    HW127229   4.126   4.052   2.159
 5066SOL    HW227230   4.078   4.140   2.288
 5067SOL     OW27231   1.942   5.878   0.471
 5067SOL    HW127232   1.935   5.968   0.428
 5067SOL    HW227233   1.854   5.831   0.464
 5068SOL     OW27234   2.693   7.017   6.769
 5068SOL    HW127235   2.599   7.041   6.745
 5068SOL    HW227236   2.754   7.050   6.697
 5069SOL     OW27237   6.640   6.501   6.030
 5069SOL    HW127238   6.583   6.583   6.025
 5069SOL    HW227239   6.611   6.445   6.107
 5070SOL     OW27240   8.889   5.145   5.883
 5070SOL    HW127241   8.920   5.066   5.936
 5070SOL    HW227242   8.805   5.122   5.834
 5071SOL     OW27243   1.867   7.256   0.500
 5071SOL    HW127244   1.943   7.313   0.468
 5071SOL    HW227245   1.823   7.301   0.578
 5072SOL     OW27246   0.612   6.888   1.747
 5072SOL    HW127247   0.669   6.814   1.784
 5072SOL    HW227248   0.602   6.959   1.817
 5073SOL     OW27249   4.688   0.649   1.073
 5073SOL    HW127250   4.599   0.605   1.089
 5073SOL    HW227251   4.761   0.591   1.110
 5074SOL     OW27252   0.761   5.012   5.378
 5074SOL    HW127253   0.839   4.963   5.417
 5074SOL    HW227254   0.779   5.032   5.282
 5075SOL     OW27255   8.059   0.894   5.762
 5075SOL    HW127256   8.139   0.847   5.798
 5075SOL    HW227257   8.077   0.926   5.669
 5076SOL     OW27258   4.609   0.405   2.248
 5076SOL    HW127259   4.673   0.347   2.299
 5076SOL    HW227260   4.521   0.406   2.294
 5077SOL     OW27261   0.547   6.316   1.180
 5077SOL    HW127262   0.573   6.340   1.274
 5077SOL    HW227263   0.521   6.220   1.177
 5078SOL     OW27264   1.706   2.594   6.834
 5078SOL    HW127265   1.655   2.591   6.748
 5078SOL    HW227266   1.764   2.675   6.835
 5079SOL     OW27267   7.914   2.691   5.859
 5079SOL    HW127268   7.997   2.644   5.831
 5079SOL    HW227269   7.846   2.685   5.785
 5080SOL     OW27270   0.390   7.773   5.885
 5080SOL    HW127271   0.359   7.857   5.839
 5080SOL    HW227272   0.447   7.798   5.963
 5081SOL     OW27273   2.264   0.273   6.939
 5081SOL    HW127274   2.247   0.332   7.018
 5081SOL    HW227275   2.260   0.328   6.855
 5082SOL     OW27276   0.334   8.124   5.995
 5082SOL    HW127277   0.280   8.205   5.971
 5082SOL    HW227278   0.326   8.106   6.093
 5083SOL     OW27279   3.664   4.860   1.611
 5083SOL    HW127280   3.731   4.904   1.671
 5083SOL    HW227281   3.600   4.929   1.577
 5084SOL     OW27282   7.408   0.477   6.183
 5084SOL    HW127283   7.319   0.437   6.159
 5084SOL    HW227284   7.414   0.485   6.283
 5085SOL     OW27285   6.023   2.704   0.736
 5085SOL    HW127286   6.033   2.698   0.637
 5085SOL    HW227287   6.101   2.753   0.774
 5086SOL     OW27288   4.139   2.839   5.339
 5086SOL    HW127289   4.193   2.822   5.422
 5086SOL    HW227290   4.109   2.935   5.338
 5087SOL     OW27291   1.061   8.397   6.415
 5087SOL    HW127292   1.036   8.383   6.511
 5087SOL    HW227293   1.158   8.421   6.409
 5088SOL     OW27294   9.514   8.200   5.882
 5088SOL    HW127295   9.441   8.244   5.830
 5088SOL    HW227296   9.593   8.262   5.886
 5089SOL     OW27297   2.545   3.066   6.956
 5089SOL    HW127298   2.554   3.084   7.054
 5089SOL    HW227299   2.473   2.999   6.941
 5090SOL     OW27300   2.099   5.220   1.259
 5090SOL    HW127301   2.176   5.240   1.319
 5090SOL    HW227302   2.064   5.128   1.279
 5091SOL     OW27303   2.672   3.283   1.737
 5091SOL    HW127304   2.603   3.264   1.807
 5091SOL    HW227305   2.709   3.375   1.752
 5092SOL     OW27306   2.748   5.649   6.531
 5092SOL    HW127307   2.701   5.658   6.619
 5092SOL    HW227308   2.724   5.727   6.473
 5093SOL     OW27309   6.711   2.490   0.921
 5093SOL    HW127310   6.626   2.466   0.874
 5093SOL    HW227311   6.733   2.586   0.902
 5094SOL     OW27312   7.272   1.768   0.574
 5094SOL    HW127313   7.345   1.781   0.507
 5094SOL    HW227314   7.218   1.852   0.582
 5095SOL     OW27315   8.896   0.795   6.844
 5095SOL    HW127316   8.827   0.777   6.774
 5095SOL    HW227317   8.947   0.711   6.863
 5096SOL     OW27318   5.315   5.045   0.833
 5096SOL    HW127319   5.245   5.104   0.792
 5096SOL    HW227320   5.270   4.975   0.888
 5097SOL     OW27321   0.959   6.847   0.896
 5097SOL    HW127322   1.026   6.851   0.821
 5097SOL    HW227323   1.006   6.822   0.981
 5098SOL     OW27324   5.281   5.292   0.241
 5098SOL    HW127325   5.343   5.370   0.244
 5098SOL    HW227326   5.319   5.221   0.182
 5099SOL     OW27327   2.592   2.668   5.597
 5099SOL    HW127328   2.593   2.755   5.546
 5099SOL    HW227329   2.511   2.615   5.571
 5100SOL     OW27330   8.234   8.207   5.366
 5100SOL    HW127331   8.246   8.255   5.279
 5100SOL    HW227332   8.186   8.120   5.349
 5101SOL     OW27333   5.687   5.085   0.811
 5101SOL    HW127334   5.727   5.081   0.902
 5101SOL    HW227335   5.604   5.141   0.813
 5102SOL     OW27336   1.794   6.394   6.776
 5102SOL    HW127337   1.753   6.485   6.783
 5102SOL    HW227338   1.722   6.325   6.786
 5103SOL     OW27339   7.739   1.496   6.725
 5103SOL    HW127340   7.791   1.580   6.741
 5103SOL    HW227341   7.776   1.423   6.783
 5104SOL     OW27342   8.315   5.882   5.802
 5104SOL    HW127343   8.251   5.884   5.725
 5104SOL    HW227344   8.266   5.903   5.887
 5105SOL     OW27345   0.717   7.088   6.396
 5105SOL    HW127346   0.717   7.110   6.493
 5105SOL    HW227347   0.811   7.067   6.367
 5106SOL     OW27348   7.329   5.211   5.098
 5106SOL    HW127349   7.366   5.209   5.005
 5106SOL    HW227350   7.329   5.119   5.136
 5107SOL     OW27351   8.666   1.311   0.830
 5107SOL    HW127352   8.708   1.276   0.914
 5107SOL    HW227353   8.656   1.236   0.765
 5108SOL     OW27354   0.599   7.311   4.952
 5108SOL    HW127355   0.569   7.334   4.859
 5108SOL    HW227356   0.699   7.301   4.953
 5109SOL     OW27357   1.854   5.377   0.652
 5109SOL    HW127358   1.929   5.371   0.718
 5109SOL    HW227359   1.888   5.358   0.560
 5110SOL     OW27360   3.450   4.740   6.535
 5110SOL    HW127361   3.506   4.667   6.496
 5110SOL    HW227362   3.506   4.822   6.547
 5111SOL     OW27363   8.416   0.489   6.091
 5111SOL    HW127364   8.494   0.493   6.028
 5111SOL    HW227365   8.346   0.554   6.060
 5112SOL     OW27366   1.963   5.117   1.647
 5112SOL    HW127367   2.036   5.060   1.685
 5112SOL    HW227368   1.922   5.070   1.568
 5113SOL     OW27369   2.757   5.540   6.044
 5113SOL    HW127370   2.802   5.534   6.133
 5113SOL    HW227371   2.826   5.537   5.971
 5114SOL     OW27372   2.766   2.519   6.138
 5114SOL    HW127373   2.683   2.463   6.138
 5114SOL    HW227374   2.846   2.460   6.134
 5115SOL     OW27375   1.418   2.543   5.548
 5115SOL    HW127376   1.495   2.572   5.491
 5115SOL    HW227377   1.413   2.443   5.548
 5116SOL     OW27378   1.492   6.119   0.991
 5116SOL    HW127379   1.578   6.070   1.006
 5116SOL    HW227380   1.494   6.162   0.901
 5117SOL     OW27381   0.993   8.030   6.400
 5117SOL    HW127382   1.062   8.068   6.339
 5117SOL    HW227383   1.031   8.020   6.492
 5118SOL     OW27384   2.889   1.850   1.452
 5118SOL    HW127385   2.854   1.837   1.359
 5118SOL    HW227386   2.819   1.824   1.518
 5119SOL     OW27387   4.360   3.098   6.554
 5119SOL    HW127388   4.440   3.129   6.502
 5119SOL    HW227389   4.384   3.017   6.607
 5120SOL     OW27390   4.638   6.920   1.877
 5120SOL    HW127391   4.572   6.969   1.933
 5120SOL    HW227392   4.685   6.851   1.933
 5121SOL     OW27393   7.482   7.380   6.020
 5121SOL    HW127394   7.487   7.354   6.117
 5121SOL    HW227395   7.554   7.333   5.970
 5122SOL     OW27396   4.496   3.524   0.890
 5122SOL    HW127397   4.540   3.595   0.834
 5122SOL    HW227398   4.408   3.557   0.923
 5123SOL     OW27399   3.447   1.704   1.934
 5123SOL    HW127400   3.437   1.725   2.031
 5123SOL    HW227401   3.468   1.607   1.923
 5124SOL     OW27402   2.370   5.962   6.650
 5124SOL    HW127403   2.304   6.037   6.644
 5124SOL    HW227404   2.440   5.984   6.718
 5125SOL     OW27405   2.757   6.915   1.112
 5125SOL    HW127406   2.728   6.845   1.178
 5125SOL    HW227407   2.677   6.946   1.061
 5126SOL     OW27408   0.498   7.593   6.770
 5126SOL    HW127409   0.567   7.636   6.829
 5126SOL    HW227410   0.409   7.595   6.815
 5127SOL     OW27411   3.845   2.394   1.287
 5127SOL    HW127412   3.844   2.360   1.381
 5127SOL    HW227413   3.784   2.338   1.231
 5128SOL     OW27414   7.709   2.231   1.123
 5128SOL    HW127415   7.613   2.252   1.107
 5128SOL    HW227416   7.748   2.186   1.043
 5129SOL     OW27417   5.942   6.784   5.649
 5129SOL    HW127418   5.890   6.719   5.704
 5129SOL    HW227419   5.897   6.797   5.561
 5130SOL     OW27420   6.171   7.845   1.324
 5130SOL    HW127421   6.204   7.842   1.419
 5130SOL    HW227422   6.175   7.939   1.290
 5131SOL     OW27423   0.953   5.493   1.310
 5131SOL    HW127424   0.928   5.469   1.404
 5131SOL    HW227425   1.033   5.553   1.311
 5132SOL     OW27426   1.128   1.273   1.339
 5132SOL    HW127427   1.202   1.219   1.300
 5132SOL    HW227428   1.059   1.212   1.378
 5133SOL     OW27429   2.803   6.350   0.256
 5133SOL    HW127430   2.797   6.448   0.237
 5133SOL    HW227431   2.899   6.324   0.268
 5134SOL     OW27432   5.589   2.761   0.938
 5134SOL    HW127433   5.532   2.821   0.882
 5134SOL    HW227434   5.530   2.698   0.989
 5135SOL     OW27435   1.822   1.355   1.318
 5135SOL    HW127436   1.887   1.424   1.285
 5135SOL    HW227437   1.794   1.378   1.411
 5136SOL     OW27438   2.298   8.421   0.841
 5136SOL    HW127439   2.323   8.325   0.852
 5136SOL    HW227440   2.278   8.461   0.930
 5137SOL     OW27441   6.091   6.660   2.247
 5137SOL    HW127442   6.189   6.673   2.261
 5137SOL    HW227443   6.055   6.601   2.319
 5138SOL     OW27444   8.829   6.855   1.699
 5138SOL    HW127445   8.745   6.865   1.752
 5138SOL    HW227446   8.823   6.773   1.642
 5139SOL     OW27447   4.408   4.795   5.761
 5139SOL    HW127448   4.439   4.702   5.742
 5139SOL    HW227449   4.343   4.824   5.691
 5140SOL     OW27450   9.168   8.321   0.384
 5140SOL    HW127451   9.143   8.417   0.400
 5140SOL    HW227452   9.249   8.298   0.438
 5141SOL     OW27453   3.140   6.419   1.456
 5141SOL    HW127454   3.089   6.336   1.434
 5141SOL    HW227455   3.087   6.499   1.427
 5142SOL     OW27456   4.903   2.729   6.314
 5142SOL    HW127457   4.974   2.782   6.267
 5142SOL    HW227458   4.946   2.670   6.382
 5143SOL     OW27459   3.054   3.358   6.200
 5143SOL    HW127460   3.045   3.457   6.192
 5143SOL    HW227461   2.981   3.313   6.149
 5144SOL     OW27462   6.053   0.341   2.075
 5144SOL    HW127463   6.116   0.418   2.084
 5144SOL    HW227464   6.042   0.296   2.164
 5145SOL     OW27465   5.245   0.943   6.928
 5145SOL    HW127466   5.287   0.853   6.943
 5145SOL    HW227467   5.201   0.974   7.012
 5146SOL     OW27468   0.311   2.724   6.965
 5146SOL    HW127469   0.241   2.693   6.901
 5146SOL    HW227470   0.358   2.804   6.927
 5147SOL     OW27471   1.484   1.869   1.419
 5147SOL    HW127472   1.547   1.796   1.393
 5147SOL    HW227473   1.535   1.955   1.427
 5148SOL     OW27474   3.863   4.972   1.759
 5148SOL    HW127475   3.950   4.932   1.730
 5148SOL    HW227476   3.830   4.924   1.840
 5149SOL     OW27477   1.461   2.584   6.683
 5149SOL    HW127478   1.386   2.567   6.748
 5149SOL    HW227479   1.465   2.682   6.662
 5150SOL     OW27480   4.622   7.387   6.280
 5150SOL    HW127481   4.671   7.381   6.193
 5150SOL    HW227482   4.686   7.375   6.356
 5151SOL     OW27483   1.408   1.947   5.513
 5151SOL    HW127484   1.352   2.013   5.564
 5151SOL    HW227485   1.448   1.992   5.434
 5152SOL     OW27486   5.755   7.975   2.220
 5152SOL    HW127487   5.826   7.913   2.256
 5152SOL    HW227488   5.669   7.924   2.210
 5153SOL     OW27489   6.033   2.978   1.173
 5153SOL    HW127490   6.081   3.061   1.203
 5153SOL    HW227491   6.083   2.937   1.097
 5154SOL     OW27492   8.080   2.810   0.683
 5154SOL    HW127493   8.169   2.854   0.699
 5154SOL    HW227494   8.007   2.874   0.706
 5155SOL     OW27495   3.757   1.736   6.383
 5155SOL    HW127496   3.658   1.728   6.396
 5155SOL    HW227497   3.787   1.669   6.315
 5156SOL     OW27498   3.491   1.357   1.533
 5156SOL    HW127499   3.482   1.432   1.467
 5156SOL    HW227500   3.558   1.381   1.602
 5157SOL     OW27501   7.218   6.657   0.496
 5157SOL    HW127502   7.210   6.571   0.446
 5157SOL    HW227503   7.273   6.644   0.578
 5158SOL     OW27504   4.964   1.453   1.881
 5158SOL    HW127505   4.947   1.390   1.956
 5158SOL    HW227506   4.961   1.547   1.915
 5159SOL     OW27507   1.170   1.490   6.921
 5159SOL    HW127508   1.187   1.555   6.995
 5159SOL    HW227509   1.256   1.468   6.876
 5160SOL     OW27510   5.546   7.708   0.528
 5160SOL    HW127511   5.606   7.773   0.482
 5160SOL    HW227512   5.586   7.681   0.615
 5161SOL     OW27513   2.537   0.862   1.307
 5161SOL    HW127514   2.622   0.812   1.326
 5161SOL    HW227515   2.462   0.821   1.359
 5162SOL     OW27516   2.254   6.796   6.871
 5162SOL    HW127517   2.271   6.890   6.844
 5162SOL    HW227518   2.249   6.738   6.789
 5163SOL     OW27519   8.689   4.115   6.808
 5163SOL    HW127520   8.715   4.097   6.903
 5163SOL    HW227521   8.768   4.150   6.758
 5164SOL     OW27522   8.628   1.908   1.622
 5164SOL    HW127523   8.641   2.003   1.594
 5164SOL    HW227524   8.646   1.899   1.720
 5165SOL     OW27525   5.748   8.051   6.547
 5165SOL    HW127526   5.847   8.066   6.557
 5165SOL    HW227527   5.729   8.004   6.461
 5166SOL     OW27528   3.864   7.293   0.648
 5166SOL    HW127529   3.893   7.199   0.662
 5166SOL    HW227530   3.944   7.354   0.651
 5167SOL     OW27531   6.162   0.545   0.810
 5167SOL    HW127532   6.116   0.617   0.758
 5167SOL    HW227533   6.102   0.512   0.883
 5168SOL     OW27534   5.711   2.098   1.144
 5168SOL    HW127535   5.696   2.024   1.079
 5168SOL    HW227536   5.674   2.183   1.106
 5169SOL     OW27537   0.328   1.843   1.089
 5169SOL    HW127538   0.311   1.752   1.127
 5169SOL    HW227539   0.376   1.898   1.156
 5170SOL     OW27540   7.910   5.467   5.156
 5170SOL    HW127541   7.971   5.471   5.078
 5170SOL    HW227542   7.815   5.464   5.124
 5171SOL     OW27543   4.330   6.510   5.790
 5171SOL    HW127544   4.327   6.431   5.851
 5171SOL    HW227545   4.299   6.482   5.699
 5172SOL     OW27546   9.001   2.048   6.417
 5172SOL    HW127547   9.034   2.043   6.511
 5172SOL    HW227548   8.986   2.144   6.393
 5173SOL     OW27549   4.700   7.895   5.529
 5173SOL    HW127550   4.626   7.829   5.514
 5173SOL    HW227551   4.756   7.864   5.606
 5174SOL     OW27552   0.267   7.234   1.204
 5174SOL    HW127553   0.238   7.139   1.190
 5174SOL    HW227554   0.212   7.275   1.277
 5175SOL     OW27555   6.779   4.149   1.431
 5175SOL    HW127556   6.733   4.193   1.355
 5175SOL    HW227557   6.749   4.190   1.517
 5176SOL     OW27558   2.496   6.569   6.606
 5176SOL    HW127559   2.542   6.640   6.659
 5176SOL    HW227560   2.413   6.540   6.653
 5177SOL     OW27561   9.154   0.630   5.740
 5177SOL    HW127562   9.170   0.546   5.687
 5177SOL    HW227563   9.057   0.655   5.733
 5178SOL     OW27564   5.709   0.197   6.707
 5178SOL    HW127565   5.715   0.293   6.680
 5178SOL    HW227566   5.682   0.190   6.803
 5179SOL     OW27567   0.532   1.235   6.790
 5179SOL    HW127568   0.607   1.241   6.725
 5179SOL    HW227569   0.449   1.271   6.748
 5180SOL     OW27570   7.969   3.717   1.435
 5180SOL    HW127571   7.920   3.748   1.354
 5180SOL    HW227572   8.038   3.649   1.408
 5181SOL     OW27573   3.716   7.378   2.407
 5181SOL    HW127574   3.771   7.381   2.490
 5181SOL    HW227575   3.759   7.318   2.340
 5182SOL     OW27576   3.003   2.986   6.876
 5182SOL    HW127577   3.012   2.914   6.807
 5182SOL    HW227578   3.019   3.075   6.834
 5183SOL     OW27579   8.604   8.162   0.888
 5183SOL    HW127580   8.698   8.142   0.858
 5183SOL    HW227581   8.540   8.122   0.823
 5184SOL     OW27582   7.786   4.898   6.814
 5184SOL    HW127583   7.800   4.912   6.716
 5184SOL    HW227584   7.757   4.803   6.831
 5185SOL     OW27585   5.432   8.027   1.781
 5185SOL    HW127586   5.494   8.081   1.724
 5185SOL    HW227587   5.454   8.041   1.877
 5186SOL     OW27588   1.138   3.454   0.249
 5186SOL    HW127589   1.129   3.554   0.248
 5186SOL    HW227590   1.060   3.414   0.296
 5187SOL     OW27591   5.912   1.202   0.813
 5187SOL    HW127592   6.001   1.211   0.859
 5187SOL    HW227593   5.922   1.143   0.733
 5188SOL     OW27594   5.527   8.209   1.618
 5188SOL    HW127595   5.487   8.295   1.650
 5188SOL    HW227596   5.494   8.189   1.525
 5189SOL     OW27597   5.616   8.128   0.522
 5189SOL    HW127598   5.704   8.116   0.475
 5189SOL    HW227599   5.632   8.154   0.617
 5190SOL     OW27600   3.868   4.674   1.627
 5190SOL    HW127601   3.778   4.716   1.613
 5190SOL    HW227602   3.887   4.667   1.725
 5191SOL     OW27603   5.092   7.005   5.805
 5191SOL    HW127604   5.033   6.984   5.727
 5191SOL    HW227605   5.073   6.942   5.880
 5192SOL     OW27606   6.102   1.452   6.637
 5192SOL    HW127607   6.171   1.385   6.608
 5192SOL    HW227608   6.118   1.477   6.732
 5193SOL     OW27609   8.894   7.120   6.473
 5193SOL    HW127610   8.808   7.104   6.424
 5193SOL    HW227611   8.882   7.102   6.570
 5194SOL     OW27612   0.682   0.870   5.599
 5194SOL    HW127613   0.697   0.862   5.500
 5194SOL    HW227614   0.769   0.865   5.647
 5195SOL     OW27615   8.167   3.389   6.662
 5195SOL    HW127616   8.225   3.411   6.584
 5195SOL    HW227617   8.179   3.458   6.733
 5196SOL     OW27618   9.437   3.057   6.484
 5196SOL    HW127619   9.411   3.089   6.575
 5196SOL    HW227620   9.372   2.988   6.453
 5197SOL     OW27621   9.548   4.868   1.262
 5197SOL    HW127622   9.615   4.894   1.333
 5197SOL    HW227623   9.515   4.776   1.280
 5198SOL     OW27624   4.959   1.414   6.404
 5198SOL    HW127625   4.980   1.380   6.496
 5198SOL    HW227626   4.937   1.511   6.409
 5199SOL     OW27627   0.485   7.004   0.982
 5199SOL    HW127628   0.498   6.982   1.079
 5199SOL    HW227629   0.460   6.920   0.933
 5200SOL     OW27630   2.135   2.806   6.864
 5200SOL    HW127631   2.157   2.719   6.906
 5200SOL    HW227632   2.206   2.829   6.797
 5201SOL     OW27633   8.982   3.892   0.367
 5201SOL    HW127634   9.001   3.987   0.390
 5201SOL    HW227635   9.053   3.833   0.405
 5202SOL     OW27636   1.114   6.562   0.293
 5202SOL    HW127637   1.094   6.522   0.382
 5202SOL    HW227638   1.080   6.656   0.290
 5203SOL     OW27639   1.291   8.284   0.702
 5203SOL    HW127640   1.318   8.377   0.727
 5203SOL    HW227641   1.251   8.238   0.781
 5204SOL     OW27642   7.087   4.226   1.574
 5204SOL    HW127643   7.180   4.258   1.593
 5204SOL    HW227644   7.091   4.136   1.530
 5205SOL     OW27645   1.531   4.836   6.405
 5205SOL    HW127646   1.523   4.744   6.366
 5205SOL    HW227647   1.616   4.879   6.372
 5206SOL     OW27648   7.987   7.439   6.706
 5206SOL    HW127649   8.029   7.525   6.676
 5206SOL    HW227650   7.921   7.458   6.779
 5207SOL     OW27651   7.206   5.568   1.244
 5207SOL    HW127652   7.215   5.573   1.145
 5207SOL    HW227653   7.263   5.494   1.279
 5208SOL     OW27654   0.621   5.645   6.082
 5208SOL    HW127655   0.674   5.654   5.998
 5208SOL    HW227656   0.659   5.571   6.137
 5209SOL     OW27657   5.106   6.210   6.181
 5209SOL    HW127658   5.124   6.246   6.272
 5209SOL    HW227659   5.187   6.164   6.146
 5210SOL     OW27660   4.148   5.470   2.270
 5210SOL    HW127661   4.111   5.556   2.306
 5210SOL    HW227662   4.077   5.400   2.273
 5211SOL     OW27663   3.607   6.246   1.144
 5211SOL    HW127664   3.617   6.261   1.242
 5211SOL    HW227665   3.544   6.170   1.128
 5212SOL     OW27666   2.307   5.543   1.171
 5212SOL    HW127667   2.315   5.582   1.262
 5212SOL    HW227668   2.223   5.575   1.127
 5213SOL     OW27669   3.510   4.653   1.725
 5213SOL    HW127670   3.483   4.672   1.820
 5213SOL    HW227671   3.547   4.736   1.684
 5214SOL     OW27672   6.793   6.235   1.766
 5214SOL    HW127673   6.849   6.154   1.781
 5214SOL    HW227674   6.750   6.262   1.852
 5215SOL     OW27675   1.088   0.805   1.064
 5215SOL    HW127676   1.137   0.869   1.004
 5215SOL    HW227677   1.022   0.855   1.119
 5216SOL     OW27678   9.011   7.373   1.342
 5216SOL    HW127679   9.078   7.445   1.356
 5216SOL    HW227680   8.955   7.361   1.424
 5217SOL     OW27681   2.194   4.064   2.148
 5217SOL    HW127682   2.123   4.124   2.185
 5217SOL    HW227683   2.159   4.016   2.067
 5218SOL     OW27684   1.355   6.610   0.400
 5218SOL    HW127685   1.267   6.569   0.378
 5218SOL    HW227686   1.413   6.610   0.319
 5219SOL     OW27687   1.969   2.693   0.797
 5219SOL    HW127688   1.912   2.668   0.875
 5219SOL    HW227689   2.065   2.678   0.819
 5220SOL     OW27690   6.035   3.062   1.726
 5220SOL    HW127691   6.032   3.004   1.807
 5220SOL    HW227692   5.942   3.088   1.700
 5221SOL     OW27693   4.245   0.796   1.698
 5221SOL    HW127694   4.251   0.838   1.789
 5221SOL    HW227695   4.158   0.822   1.655
 5222SOL     OW27696   0.900   7.580   6.212
 5222SOL    HW127697   0.988   7.622   6.192
 5222SOL    HW227698   0.851   7.635   6.280
 5223SOL     OW27699   4.639   6.460   0.710
 5223SOL    HW127700   4.641   6.538   0.648
 5223SOL    HW227701   4.661   6.376   0.660
 5224SOL     OW27702   4.081   3.037   6.439
 5224SOL    HW127703   4.114   2.964   6.380
 5224SOL    HW227704   4.155   3.071   6.496
 5225SOL     OW27705   9.022   3.944   6.322
 5225SOL    HW127706   9.055   4.038   6.321
 5225SOL    HW227707   8.925   3.942   6.301
 5226SOL     OW27708   6.895   0.852   6.057
 5226SOL    HW127709   6.883   0.895   5.968
 5226SOL    HW227710   6.979   0.888   6.100
 5227SOL     OW27711   6.563   1.860   0.388
 5227SOL    HW127712   6.607   1.838   0.476
 5227SOL    HW227713   6.630   1.900   0.326
 5228SOL     OW27714   5.049   1.254   6.171
 5228SOL    HW127715   4.983   1.298   6.233
 5228SOL    HW227716   5.138   1.298   6.181
 5229SOL     OW27717   5.323   2.181   5.831
 5229SOL    HW127718   5.309   2.147   5.738
 5229SOL    HW227719   5.301   2.278   5.835
 5230SOL     OW27720   4.259   1.953   6.201
 5230SOL    HW127721   4.228   1.858   6.208
 5230SOL    HW227722   4.337   1.967   6.262
 5231SOL     OW27723   3.453   6.867   1.671
 5231SOL    HW127724   3.509   6.877   1.753
 5231SOL    HW227725   3.509   6.827   1.598
 5232SOL     OW27726   8.899   6.688   5.868
 5232SOL    HW127727   8.971   6.732   5.814
 5232SOL    HW227728   8.932   6.600   5.902
 5233SOL     OW27729   0.596   7.028   5.352
 5233SOL    HW127730   0.497   7.013   5.360
 5233SOL    HW227731   0.616   7.126   5.358
 5234SOL     OW27732   0.691   6.469   1.666
 5234SOL    HW127733   0.635   6.515   1.734
 5234SOL    HW227734   0.788   6.484   1.687
 5235SOL     OW27735   3.649   8.297   1.551
 5235SOL    HW127736   3.686   8.263   1.465
 5235SOL    HW227737   3.655   8.225   1.620
 5236SOL     OW27738   4.772   4.707   1.033
 5236SOL    HW127739   4.696   4.650   1.001
 5236SOL    HW227740   4.793   4.684   1.128
 5237SOL     OW27741   1.288   2.772   5.498
 5237SOL    HW127742   1.305   2.677   5.526
 5237SOL    HW227743   1.354   2.833   5.541
 5238SOL     OW27744   6.160   0.597   2.126
 5238SOL    HW127745   6.100   0.674   2.148
 5238SOL    HW227746   6.246   0.606   2.177
 5239SOL     OW27747   9.152   6.798   1.631
 5239SOL    HW127748   9.084   6.748   1.577
 5239SOL    HW227749   9.171   6.747   1.715
 5240SOL     OW27750   1.351   4.225   5.866
 5240SOL    HW127751   1.449   4.209   5.882
 5240SOL    HW227752   1.334   4.232   5.768
 5241SOL     OW27753   4.945   4.533   6.820
 5241SOL    HW127754   4.923   4.486   6.734
 5241SOL    HW227755   4.957   4.466   6.893
 5242SOL     OW27756   9.223   7.606   1.232
 5242SOL    HW127757   9.247   7.541   1.159
 5242SOL    HW227758   9.286   7.594   1.309
 5243SOL     OW27759   4.716   5.667   1.797
 5243SOL    HW127760   4.658   5.713   1.730
 5243SOL    HW227761   4.705   5.712   1.886
 5244SOL     OW27762   2.012   6.376   5.272
 5244SOL    HW127763   2.003   6.300   5.208
 5244SOL    HW227764   2.108   6.389   5.295
 5245SOL     OW27765   5.603   5.760   1.292
 5245SOL    HW127766   5.696   5.782   1.262
 5245SOL    HW227767   5.537   5.806   1.233
 5246SOL     OW27768   3.365   5.758   6.064
 5246SOL    HW127769   3.462   5.782   6.073
 5246SOL    HW227770   3.320   5.768   6.153
 5247SOL     OW27771   7.283   5.555   0.986
 5247SOL    HW127772   7.382   5.544   0.997
 5247SOL    HW227773   7.259   5.652   0.999
 5248SOL     OW27774   1.863   4.681   6.501
 5248SOL    HW127775   1.849   4.703   6.597
 5248SOL    HW227776   1.866   4.765   6.447
 5249SOL     OW27777   0.226   2.999   6.399
 5249SOL    HW127778   0.130   3.021   6.415
 5249SOL    HW227779   0.232   2.913   6.348
 5250SOL     OW27780   6.676   3.975   1.188
 5250SOL    HW127781   6.656   4.067   1.223
 5250SOL    HW227782   6.729   3.982   1.103
 5251SOL     OW27783   0.131   0.144   1.744
 5251SOL    HW127784   0.163   0.206   1.673
 5251SOL    HW227785   0.122   0.194   1.830
 5252SOL     OW27786   4.443   2.789   1.593
 5252SOL    HW127787   4.496   2.829   1.668
 5252SOL    HW227788   4.360   2.842   1.578
 5253SOL     OW27789   5.100   0.637   0.790
 5253SOL    HW127790   5.105   0.541   0.761
 5253SOL    HW227791   5.005   0.668   0.786
 5254SOL     OW27792   9.000   2.543   0.805
 5254SOL    HW127793   8.945   2.619   0.839
 5254SOL    HW227794   8.956   2.456   0.830
 5255SOL     OW27795   6.989   5.759   6.915
 5255SOL    HW127796   7.010   5.857   6.920
 5255SOL    HW227797   6.972   5.734   6.820
 5256SOL     OW27798   2.048   4.364   0.457
 5256SOL    HW127799   2.137   4.322   0.438
 5256SOL    HW227800   1.999   4.380   0.371
 5257SOL     OW27801   2.043   2.558   5.017
 5257SOL    HW127802   1.974   2.486   5.016
 5257SOL    HW227803   2.003   2.643   5.050
 5258SOL     OW27804   8.188   4.614   6.922
 5258SOL    HW127805   8.127   4.549   6.878
 5258SOL    HW227806   8.139   4.700   6.938
 5259SOL     OW27807   8.201   5.953   6.785
 5259SOL    HW127808   8.174   5.879   6.846
 5259SOL    HW227809   8.289   5.932   6.743
 5260SOL     OW27810   8.413   6.738   5.944
 5260SOL    HW127811   8.417   6.647   5.904
 5260SOL    HW227812   8.360   6.798   5.884
 5261SOL     OW27813   1.851   0.228   1.752
 5261SOL    HW127814   1.866   0.136   1.790
 5261SOL    HW227815   1.767   0.266   1.790
 5262SOL     OW27816   3.520   2.395   6.434
 5262SOL    HW127817   3.431   2.395   6.481
 5262SOL    HW227818   3.593   2.408   6.502
 5263SOL     OW27819   9.444   2.298   6.392
 5263SOL    HW127820   9.357   2.326   6.433
 5263SOL    HW227821   9.433   2.294   6.292
 5264SOL     OW27822   4.964   0.651   5.535
 5264SOL    HW127823   4.923   0.685   5.451
 5264SOL    HW227824   5.055   0.691   5.546
 5265SOL     OW27825   0.432   6.504   4.629
 5265SOL    HW127826   0.507   6.448   4.593
 5265SOL    HW227827   0.378   6.539   4.552
 5266SOL     OW27828   3.708   2.334   2.109
 5266SOL    HW127829   3.717   2.423   2.153
 5266SOL    HW227830   3.715   2.262   2.179
 5267SOL     OW27831   4.732   5.752   1.442
 5267SOL    HW127832   4.807   5.784   1.501
 5267SOL    HW227833   4.708   5.658   1.466
 5268SOL     OW27834   7.508   5.359   1.020
 5268SOL    HW127835   7.512   5.276   1.076
 5268SOL    HW227836   7.437   5.348   0.950
 5269SOL     OW27837   1.724   2.261   6.164
 5269SOL    HW127838   1.724   2.350   6.209
 5269SOL    HW227839   1.652   2.258   6.095
 5270SOL     OW27840   5.245   4.789   0.981
 5270SOL    HW127841   5.151   4.821   0.990
 5270SOL    HW227842   5.295   4.808   1.066
 5271SOL     OW27843   4.134   1.204   0.802
 5271SOL    HW127844   4.172   1.273   0.741
 5271SOL    HW227845   4.195   1.125   0.805
 5272SOL     OW27846   8.993   7.336   5.328
 5272SOL    HW127847   8.937   7.271   5.379
 5272SOL    HW227848   8.939   7.376   5.254
 5273SOL     OW27849   6.464   1.494   2.224
 5273SOL    HW127850   6.473   1.543   2.310
 5273SOL    HW227851   6.541   1.431   2.213
 5274SOL     OW27852   3.518   5.561   6.526
 5274SOL    HW127853   3.533   5.651   6.485
 5274SOL    HW227854   3.423   5.532   6.511
 5275SOL     OW27855   7.576   0.633   6.952
 5275SOL    HW127856   7.661   0.617   7.002
 5275SOL    HW227857   7.596   0.636   6.854
 5276SOL     OW27858   8.828   4.665   6.264
 5276SOL    HW127859   8.908   4.697   6.213
 5276SOL    HW227860   8.858   4.621   6.349
 5277SOL     OW27861   2.825   5.125   0.756
 5277SOL    HW127862   2.729   5.100   0.770
 5277SOL    HW227863   2.879   5.091   0.833
 5278SOL     OW27864   7.311   6.678   0.762
 5278SOL    HW127865   7.254   6.748   0.804
 5278SOL    HW227866   7.355   6.623   0.834
 5279SOL     OW27867   7.990   1.791   0.930
 5279SOL    HW127868   8.017   1.837   1.014
 5279SOL    HW227869   8.071   1.755   0.884
 5280SOL     OW27870   2.767   1.167   6.230
 5280SOL    HW127871   2.710   1.092   6.261
 5280SOL    HW227872   2.863   1.141   6.235
 5281SOL     OW27873   5.209   6.734   0.330
 5281SOL    HW127874   5.250   6.792   0.400
 5281SOL    HW227875   5.168   6.791   0.259
 5282SOL     OW27876   5.945   5.320   6.923
 5282SOL    HW127877   5.849   5.316   6.898
 5282SOL    HW227878   5.955   5.305   7.022
 5283SOL     OW27879   3.394   0.246   6.901
 5283SOL    HW127880   3.448   0.163   6.912
 5283SOL    HW227881   3.312   0.241   6.956
 5284SOL     OW27882   7.041   7.395   6.308
 5284SOL    HW127883   7.065   7.490   6.324
 5284SOL    HW227884   6.954   7.374   6.352
 5285SOL     OW27885   9.361   3.058   1.481
 5285SOL    HW127886   9.289   3.041   1.548
 5285SOL    HW227887   9.451   3.054   1.526
 5286SOL     OW27888   5.007   4.858   0.564
 5286SOL    HW127889   5.059   4.896   0.488
 5286SOL    HW227890   4.910   4.853   0.539
 5287SOL     OW27891   3.775   2.116   6.210
 5287SOL    HW127892   3.780   2.023   6.172
 5287SOL    HW227893   3.868   2.147   6.230
 5288SOL     OW27894   9.278   4.371   6.955
 5288SOL    HW127895   9.356   4.429   6.932
 5288SOL    HW227896   9.274   4.293   6.893
 5289SOL     OW27897   8.194   7.610   5.456
 5289SOL    HW127898   8.163   7.667   5.380
 5289SOL    HW227899   8.274   7.557   5.428
 5290SOL     OW27900   2.350   2.156   6.806
 5290SOL    HW127901   2.324   2.243   6.764
 5290SOL    HW227902   2.272   2.093   6.802
 5291SOL     OW27903   6.206   0.491   6.675
 5291SOL    HW127904   6.306   0.498   6.676
 5291SOL    HW227905   6.180   0.398   6.649
 5292SOL     OW27906   9.154   4.967   6.307
 5292SOL    HW127907   9.091   4.952   6.383
 5292SOL    HW227908   9.162   4.883   6.253
 5293SOL     OW27909   7.570   5.451   5.074
 5293SOL    HW127910   7.624   5.508   5.011
 5293SOL    HW227911   7.473   5.458   5.051
 5294SOL     OW27912   7.553   2.167   0.562
 5294SOL    HW127913   7.467   2.160   0.512
 5294SOL    HW227914   7.604   2.247   0.528
 5295SOL     OW27915   9.274   5.502   1.017
 5295SOL    HW127916   9.274   5.435   1.092
 5295SOL    HW227917   9.291   5.593   1.054
 5296SOL     OW27918   8.351   6.869   0.473
 5296SOL    HW127919   8.260   6.903   0.450
 5296SOL    HW227920   8.359   6.773   0.444
 5297SOL     OW27921   4.075   5.274   0.943
 5297SOL    HW127922   3.986   5.240   0.974
 5297SOL    HW227923   4.102   5.353   0.999
 5298SOL     OW27924   7.595   7.719   6.026
 5298SOL    HW127925   7.574   7.689   5.933
 5298SOL    HW227926   7.603   7.818   6.029
 5299SOL     OW27927   2.148   5.539   0.514
 5299SOL    HW127928   2.107   5.517   0.603
 5299SOL    HW227929   2.179   5.455   0.470
 5300SOL     OW27930   7.339   6.876   1.192
 5300SOL    HW127931   7.351   6.817   1.271
 5300SOL    HW227932   7.330   6.971   1.222
 5301SOL     OW27933   2.058   3.685   5.595
 5301SOL    HW127934   2.075   3.742   5.515
 5301SOL    HW227935   2.017   3.598   5.566
 5302SOL     OW27936   2.053   2.304   6.285
 5302SOL    HW127937   1.995   2.364   6.340
 5302SOL    HW227938   1.997   2.251   6.222
 5303SOL     OW27939   1.277   6.742   6.618
 5303SOL    HW127940   1.355   6.803   6.631
 5303SOL    HW227941   1.309   6.653   6.584
 5304SOL     OW27942   8.255   6.630   5.521
 5304SOL    HW127943   8.311   6.710   5.541
 5304SOL    HW227944   8.209   6.599   5.604
 5305SOL     OW27945   2.949   1.270   0.668
 5305SOL    HW127946   3.009   1.317   0.732
 5305SOL    HW227947   2.955   1.171   0.683
 5306SOL     OW27948   8.384   7.472   6.018
 5306SOL    HW127949   8.481   7.449   6.020
 5306SOL    HW227950   8.330   7.389   6.005
 5307SOL     OW27951   6.922   7.132   1.365
 5307SOL    HW127952   6.954   7.109   1.457
 5307SOL    HW227953   6.914   7.048   1.311
 5308SOL     OW27954   0.395   7.655   1.052
 5308SOL    HW127955   0.389   7.640   1.150
 5308SOL    HW227956   0.426   7.749   1.035
 5309SOL     OW27957   7.738   3.497   1.395
 5309SOL    HW127958   7.757   3.589   1.360
 5309SOL    HW227959   7.788   3.483   1.481
 5310SOL     OW27960   7.868   5.973   1.256
 5310SOL    HW127961   7.869   5.892   1.315
 5310SOL    HW227962   7.796   6.036   1.288
 5311SOL     OW27963   4.620   0.303   5.974
 5311SOL    HW127964   4.684   0.372   6.008
 5311SOL    HW227965   4.637   0.286   5.877
 5312SOL     OW27966   7.913  -0.001   5.981
 5312SOL    HW127967   7.816   0.015   5.968
 5312SOL    HW227968   7.965   0.077   5.947
 5313SOL     OW27969   5.773   4.648   0.422
 5313SOL    HW127970   5.814   4.732   0.457
 5313SOL    HW227971   5.840   4.573   0.426
 5314SOL     OW27972   8.187   5.125   0.985
 5314SOL    HW127973   8.110   5.070   0.953
 5314SOL    HW227974   8.268   5.105   0.930
 5315SOL     OW27975   1.638   5.711   5.943
 5315SOL    HW127976   1.690   5.698   5.859
 5315SOL    HW227977   1.624   5.623   5.988
 5316SOL     OW27978   4.690   7.527   5.365
 5316SOL    HW127979   4.759   7.514   5.294
 5316SOL    HW227980   4.605   7.558   5.323
 5317SOL     OW27981   2.386   5.464   5.920
 5317SOL    HW127982   2.406   5.557   5.952
 5317SOL    HW227983   2.432   5.397   5.979
 5318SOL     OW27984   2.272   4.718   5.898
 5318SOL    HW127985   2.263   4.702   5.996
 5318SOL    HW227986   2.353   4.670   5.864
 5319SOL     OW27987   2.591   3.559   5.947
 5319SOL    HW127988   2.675   3.506   5.960
 5319SOL    HW227989   2.615   3.654   5.927
 5320SOL     OW27990   5.526   6.875   0.884
 5320SOL    HW127991   5.476   6.899   0.801
 5320SOL    HW227992   5.529   6.953   0.945
 5321SOL     OW27993   3.014   0.072   0.778
 5321SOL    HW127994   2.921   0.079   0.812
 5321SOL    HW227995   3.014   0.023   0.690
 5322SOL     OW27996   5.757   8.224   2.364
 5322SOL    HW127997   5.752   8.126   2.344
 5322SOL    HW227998   5.853   8.251   2.371
 5323SOL     OW27999   6.586   7.972   6.076
 5323SOL    HW128000   6.530   7.892   6.097
 5323SOL    HW228001   6.543   8.025   6.003
 5324SOL     OW28002   8.979   2.716   0.492
 5324SOL    HW128003   9.058   2.721   0.430
 5324SOL    HW228004   8.901   2.762   0.450
 5325SOL     OW28005   3.306   8.361   6.594
 5325SOL    HW128006   3.313   8.298   6.517
 5325SOL    HW228007   3.225   8.419   6.583
 5326SOL     OW28008   2.590   2.353   1.331
 5326SOL    HW128009   2.538   2.415   1.272
 5326SOL    HW228010   2.591   2.262   1.291
 5327SOL     OW28011   1.716   7.664   0.993
 5327SOL    HW128012   1.761   7.640   1.079
 5327SOL    HW228013   1.617   7.650   1.002
 5328SOL     OW28014   2.090   4.623   5.688
 5328SOL    HW128015   2.105   4.620   5.590
 5328SOL    HW228016   2.173   4.657   5.734
 5329SOL     OW28017   2.817   1.890   0.328
 5329SOL    HW128018   2.852   1.816   0.386
 5329SOL    HW228019   2.840   1.871   0.232
 5330SOL     OW28020   8.909   6.217   0.624
 5330SOL    HW128021   8.907   6.118   0.637
 5330SOL    HW228022   8.914   6.263   0.713
 5331SOL     OW28023   5.784   1.112   1.301
 5331SOL    HW128024   5.811   1.147   1.391
 5331SOL    HW228025   5.826   1.023   1.286
 5332SOL     OW28026   6.372   2.195   0.710
 5332SOL    HW128027   6.391   2.191   0.612
 5332SOL    HW228028   6.288   2.144   0.731
 5333SOL     OW28029   2.044   6.211   1.609
 5333SOL    HW128030   2.112   6.138   1.617
 5333SOL    HW228031   1.971   6.181   1.547
 5334SOL     OW28032   3.396   6.699   5.319
 5334SOL    HW128033   3.334   6.771   5.351
 5334SOL    HW228034   3.488   6.736   5.311
 5335SOL     OW28035   7.277   5.388   5.300
 5335SOL    HW128036   7.295   5.357   5.207
 5335SOL    HW228037   7.187   5.432   5.304
 5336SOL     OW28038   6.264   3.651   6.354
 5336SOL    HW128039   6.359   3.620   6.364
 5336SOL    HW228040   6.240   3.653   6.257
 5337SOL     OW28041   0.840   5.462   5.143
 5337SOL    HW128042   0.892   5.490   5.225
 5337SOL    HW228043   0.771   5.395   5.169
 5338SOL     OW28044   4.239   5.675   6.139
 5338SOL    HW128045   4.245   5.770   6.109
 5338SOL    HW228046   4.181   5.623   6.075
 5339SOL     OW28047   0.278   2.042   5.463
 5339SOL    HW128048   0.325   2.055   5.551
 5339SOL    HW228049   0.344   2.048   5.389
 5340SOL     OW28050   9.265   6.560   6.329
 5340SOL    HW128051   9.264   6.481   6.391
 5340SOL    HW228052   9.199   6.628   6.361
 5341SOL     OW28053   1.199   7.008   6.363
 5341SOL    HW128054   1.229   7.103   6.359
 5341SOL    HW228055   1.278   6.947   6.359
 5342SOL     OW28056   6.321   7.417   0.936
 5342SOL    HW128057   6.389   7.388   0.869
 5342SOL    HW228058   6.257   7.481   0.893
 5343SOL     OW28059   4.435   7.826   1.571
 5343SOL    HW128060   4.508   7.833   1.639
 5343SOL    HW228061   4.470   7.777   1.490
 5344SOL     OW28062   9.235   1.448   1.150
 5344SOL    HW128063   9.147   1.492   1.163
 5344SOL    HW228064   9.232   1.355   1.185
 5345SOL     OW28065   1.699   0.932   0.337
 5345SOL    HW128066   1.775   0.994   0.356
 5345SOL    HW228067   1.636   0.976   0.273
 5346SOL     OW28068   9.469   6.596   5.476
 5346SOL    HW128069   9.493   6.689   5.503
 5346SOL    HW228070   9.534   6.532   5.518
 5347SOL     OW28071   2.639   6.369   0.949
 5347SOL    HW128072   2.601   6.295   0.894
 5347SOL    HW228073   2.736   6.380   0.927
 5348SOL     OW28074   5.026   2.849   0.425
 5348SOL    HW128075   5.016   2.752   0.444
 5348SOL    HW228076   4.969   2.874   0.346
 5349SOL     OW28077   1.392   6.838   1.146
 5349SOL    HW128078   1.404   6.740   1.132
 5349SOL    HW228079   1.393   6.858   1.244
 5350SOL     OW28080   3.365   8.140   6.875
 5350SOL    HW128081   3.301   8.126   6.799
 5350SOL    HW228082   3.382   8.238   6.887
 5351SOL     OW28083   7.599   3.862   1.375
 5351SOL    HW128084   7.646   3.941   1.414
 5351SOL    HW228085   7.502   3.864   1.402
 5352SOL     OW28086   2.973   6.614   1.391
 5352SOL    HW128087   2.960   6.593   1.294
 5352SOL    HW228088   2.995   6.711   1.402
 5353SOL     OW28089   4.967   3.829   6.403
 5353SOL    HW128090   4.895   3.768   6.371
 5353SOL    HW228091   5.041   3.832   6.336
 5354SOL     OW28092   7.968   4.994   0.817
 5354SOL    HW128093   7.939   4.983   0.912
 5354SOL    HW228094   7.892   4.971   0.757
 5355SOL     OW28095   3.195   1.794   0.683
 5355SOL    HW128096   3.280   1.807   0.734
 5355SOL    HW228097   3.209   1.822   0.588
 5356SOL     OW28098   0.971   1.437   0.536
 5356SOL    HW128099   0.961   1.494   0.455
 5356SOL    HW228100   0.950   1.491   0.617
 5357SOL     OW28101   3.130   7.293   6.779
 5357SOL    HW128102   3.193   7.333   6.713
 5357SOL    HW228103   3.142   7.336   6.868
 5358SOL     OW28104   3.361   2.697   1.298
 5358SOL    HW128105   3.277   2.712   1.351
 5358SOL    HW228106   3.362   2.604   1.263
 5359SOL     OW28107   1.126   3.614   0.954
 5359SOL    HW128108   1.068   3.539   0.924
 5359SOL    HW228109   1.161   3.595   1.046
 5360SOL     OW28110   5.849   1.853   0.649
 5360SOL    HW128111   5.792   1.809   0.580
 5360SOL    HW228112   5.793   1.880   0.727
 5361SOL     OW28113   8.315   2.954   0.742
 5361SOL    HW128114   8.362   3.030   0.698
 5361SOL    HW228115   8.347   2.945   0.836
 5362SOL     OW28116   9.511   1.556   0.239
 5362SOL    HW128117   9.501   1.472   0.293
 5362SOL    HW228118   9.588   1.547   0.177
 5363SOL     OW28119   5.425   0.151   5.947
 5363SOL    HW128120   5.384   0.233   5.988
 5363SOL    HW228121   5.369   0.071   5.970
 5364SOL     OW28122   4.026   3.449   6.868
 5364SOL    HW128123   4.060   3.382   6.934
 5364SOL    HW228124   3.942   3.415   6.826
 5365SOL     OW28125   5.706   5.525   0.669
 5365SOL    HW128126   5.610   5.497   0.670
 5365SOL    HW228127   5.749   5.499   0.756
 5366SOL     OW28128   6.013   5.529   6.593
 5366SOL    HW128129   6.101   5.482   6.599
 5366SOL    HW228130   5.942   5.473   6.635
 5367SOL     OW28131   4.486   5.061   6.774
 5367SOL    HW128132   4.436   5.146   6.760
 5367SOL    HW228133   4.422   4.988   6.799
 5368SOL     OW28134   2.366   4.148   1.055
 5368SOL    HW128135   2.385   4.183   0.963
 5368SOL    HW228136   2.363   4.225   1.119
 5369SOL     OW28137   4.215   0.674   6.528
 5369SOL    HW128138   4.165   0.756   6.554
 5369SOL    HW228139   4.170   0.593   6.567
 5370SOL     OW28140   2.132   6.793   0.838
 5370SOL    HW128141   2.042   6.806   0.880
 5370SOL    HW228142   2.195   6.753   0.904
 5371SOL     OW28143   8.387   6.317   0.267
 5371SOL    HW128144   8.391   6.306   0.366
 5371SOL    HW228145   8.295   6.344   0.239
 5372SOL     OW28146   3.594   3.040   0.321
 5372SOL    HW128147   3.616   3.002   0.411
 5372SOL    HW228148   3.656   3.116   0.301
 5373SOL     OW28149   1.440   6.276   0.356
 5373SOL    HW128150   1.501   6.201   0.381
 5373SOL    HW228151   1.409   6.323   0.438
 5374SOL     OW28152   0.462   6.753   4.424
 5374SOL    HW128153   0.442   6.830   4.364
 5374SOL    HW228154   0.429   6.774   4.516
 5375SOL     OW28155   1.329   3.257   5.927
 5375SOL    HW128156   1.231   3.270   5.942
 5375SOL    HW228157   1.378   3.340   5.954
 5376SOL     OW28158   4.470   1.692   6.484
 5376SOL    HW128159   4.526   1.657   6.559
 5376SOL    HW228160   4.529   1.714   6.407
 5377SOL     OW28161   7.205   5.990   2.097
 5377SOL    HW128162   7.119   5.965   2.054
 5377SOL    HW228163   7.248   6.065   2.046
 5378SOL     OW28164   4.579   6.712   0.623
 5378SOL    HW128165   4.563   6.764   0.706
 5378SOL    HW228166   4.541   6.761   0.545
 5379SOL     OW28167   3.596   3.731   6.941
 5379SOL    HW128168   3.628   3.715   7.034
 5379SOL    HW228169   3.634   3.817   6.907
 5380SOL     OW28170   2.325   8.186   0.947
 5380SOL    HW128171   2.424   8.183   0.933
 5380SOL    HW228172   2.301   8.144   1.034
 5381SOL     OW28173   7.295   5.265   0.875
 5381SOL    HW128174   7.211   5.245   0.825
 5381SOL    HW228175   7.279   5.342   0.938
 5382SOL     OW28176   0.537   7.958   6.630
 5382SOL    HW128177   0.634   7.949   6.651
 5382SOL    HW228178   0.497   7.867   6.617
 5383SOL     OW28179   5.470   4.368   6.710
 5383SOL    HW128180   5.397   4.406   6.652
 5383SOL    HW228181   5.526   4.305   6.655
 5384SOL     OW28182   3.028   2.395   1.681
 5384SOL    HW128183   3.027   2.324   1.751
 5384SOL    HW228184   2.982   2.477   1.716
 5385SOL     OW28185   5.106   4.181   1.707
 5385SOL    HW128186   5.047   4.100   1.712
 5385SOL    HW228187   5.170   4.170   1.631
 5386SOL     OW28188   2.187   0.072   1.050
 5386SOL    HW128189   2.162   0.154   1.101
 5386SOL    HW228190   2.182  -0.008   1.111
 5387SOL     OW28191   7.544   4.070   1.868
 5387SOL    HW128192   7.616   4.023   1.918
 5387SOL    HW228193   7.551   4.169   1.885
 5388SOL     OW28194   6.775   4.044   6.506
 5388SOL    HW128195   6.822   4.001   6.584
 5388SOL    HW228196   6.780   3.983   6.427
 5389SOL     OW28197   3.920   7.296   6.210
 5389SOL    HW128198   3.980   7.373   6.231
 5389SOL    HW228199   3.909   7.240   6.292
 5390SOL     OW28200   4.827   8.237   1.099
 5390SOL    HW128201   4.742   8.242   1.151
 5390SOL    HW228202   4.904   8.262   1.158
 5391SOL     OW28203   4.070   0.748   6.079
 5391SOL    HW128204   4.114   0.820   6.025
 5391SOL    HW228205   4.018   0.789   6.154
 5392SOL     OW28206   4.094   6.157   5.853
 5392SOL    HW128207   4.050   6.199   5.773
 5392SOL    HW228208   4.106   6.059   5.836
 5393SOL     OW28209   2.883   4.387   1.029
 5393SOL    HW128210   2.981   4.407   1.028
 5393SOL    HW228211   2.858   4.337   0.946
 5394SOL     OW28212   5.139   3.440   6.360
 5394SOL    HW128213   5.149   3.536   6.386
 5394SOL    HW228214   5.093   3.434   6.271
 5395SOL     OW28215   3.221   2.597   0.645
 5395SOL    HW128216   3.229   2.566   0.550
 5395SOL    HW228217   3.308   2.639   0.673
 5396SOL     OW28218   2.758   2.498   0.992
 5396SOL    HW128219   2.792   2.533   0.904
 5396SOL    HW228220   2.720   2.574   1.045
 5397SOL     OW28221   1.518   4.921   6.697
 5397SOL    HW128222   1.466   5.006   6.691
 5397SOL    HW228223   1.538   4.887   6.605
 5398SOL     OW28224   4.640   5.053   5.675
 5398SOL    HW128225   4.637   4.992   5.755
 5398SOL    HW228226   4.647   4.998   5.592
 5399SOL     OW28227   2.670   4.283   5.729
 5399SOL    HW128228   2.663   4.342   5.649
 5399SOL    HW228229   2.670   4.187   5.701
 5400SOL     OW28230   3.469   6.701   1.468
 5400SOL    HW128231   3.397   6.736   1.408
 5400SOL    HW228232   3.432   6.626   1.523
 5401SOL     OW28233   6.177   1.772   1.948
 5401SOL    HW128234   6.148   1.733   1.861
 5401SOL    HW228235   6.258   1.829   1.934
 5402SOL     OW28236   6.257   6.165   2.210
 5402SOL    HW128237   6.196   6.126   2.279
 5402SOL    HW228238   6.341   6.197   2.255
 5403SOL     OW28239   8.738   2.382   6.323
 5403SOL    HW128240   8.677   2.317   6.369
 5403SOL    HW228241   8.684   2.437   6.259
 5404SOL     OW28242   2.718   2.395   5.457
 5404SOL    HW128243   2.692   2.476   5.404
 5404SOL    HW228244   2.671   2.315   5.420
 5405SOL     OW28245   0.514   0.644   5.604
 5405SOL    HW128246   0.600   0.692   5.590
 5405SOL    HW228247   0.438   0.702   5.573
 5406SOL     OW28248   8.262   0.910   1.095
 5406SOL    HW128249   8.209   0.980   1.144
 5406SOL    HW228250   8.351   0.948   1.070
 5407SOL     OW28251   7.884   2.001   1.684
 5407SOL    HW128252   7.857   2.077   1.624
 5407SOL    HW228253   7.951   1.944   1.636
 5408SOL     OW28254   5.249   2.892   1.015
 5408SOL    HW128255   5.345   2.904   1.042
 5408SOL    HW228256   5.199   2.848   1.089
 5409SOL     OW28257   4.725   5.234   2.037
 5409SOL    HW128258   4.763   5.159   1.982
 5409SOL    HW228259   4.735   5.212   2.134
 5410SOL     OW28260   8.257   6.920   5.707
 5410SOL    HW128261   8.204   6.993   5.750
 5410SOL    HW228262   8.232   6.912   5.611
 5411SOL     OW28263   4.934   0.237   6.821
 5411SOL    HW128264   4.981   0.257   6.906
 5411SOL    HW228265   4.855   0.178   6.839
 5412SOL     OW28266   1.388   1.560   6.811
 5412SOL    HW128267   1.457   1.492   6.786
 5412SOL    HW228268   1.410   1.647   6.768
 5413SOL     OW28269   4.052   1.048   1.628
 5413SOL    HW128270   4.021   0.984   1.559
 5413SOL    HW228271   4.150   1.066   1.616
 5414SOL     OW28272   8.688   2.172   1.579
 5414SOL    HW128273   8.720   2.239   1.511
 5414SOL    HW228274   8.710   2.205   1.671
 5415SOL     OW28275   5.120   6.021   5.374
 5415SOL    HW128276   5.083   6.107   5.409
 5415SOL    HW228277   5.199   6.040   5.316
 5416SOL     OW28278   7.578   5.764   6.563
 5416SOL    HW128279   7.609   5.856   6.584
 5416SOL    HW228280   7.531   5.726   6.643
 5417SOL     OW28281   0.713   7.989   5.413
 5417SOL    HW128282   0.748   7.899   5.386
 5417SOL    HW228283   0.752   8.013   5.502
 5418SOL     OW28284   2.575   6.143   6.768
 5418SOL    HW128285   2.600   6.185   6.681
 5418SOL    HW228286   2.595   6.206   6.843
 5419SOL     OW28287   2.389   6.709   5.457
 5419SOL    HW128288   2.410   6.807   5.448
 5419SOL    HW228289   2.367   6.671   5.367
 5420SOL     OW28290   7.305   7.472   6.634
 5420SOL    HW128291   7.222   7.515   6.598
 5420SOL    HW228292   7.385   7.523   6.603
 5421SOL     OW28293   4.749   3.368   6.299
 5421SOL    HW128294   4.824   3.369   6.233
 5421SOL    HW228295   4.678   3.305   6.268
 5422SOL     OW28296   5.917   6.356   5.683
 5422SOL    HW128297   5.993   6.362   5.618
 5422SOL    HW228298   5.873   6.445   5.691
 5423SOL     OW28299   3.627   6.090   5.128
 5423SOL    HW128300   3.649   5.995   5.153
 5423SOL    HW228301   3.709   6.146   5.136
 5424SOL     OW28302   9.594   6.123   5.230
 5424SOL    HW128303   9.655   6.202   5.226
 5424SOL    HW228304   9.502   6.150   5.201
 5425SOL     OW28305   0.694   4.831   1.101
 5425SOL    HW128306   0.767   4.892   1.132
 5425SOL    HW228307   0.729   4.769   1.031
 5426SOL     OW28308   3.727   4.445   1.270
 5426SOL    HW128309   3.638   4.416   1.235
 5426SOL    HW228310   3.785   4.365   1.284
 5427SOL     OW28311   5.281   2.277   1.072
 5427SOL    HW128312   5.269   2.362   1.021
 5427SOL    HW228313   5.208   2.268   1.140
 5428SOL     OW28314   1.403   0.498   1.146
 5428SOL    HW128315   1.427   0.417   1.093
 5428SOL    HW228316   1.327   0.477   1.207
 5429SOL     OW28317   1.763   5.586   5.018
 5429SOL    HW128318   1.711   5.640   4.953
 5429SOL    HW228319   1.708   5.508   5.049
 5430SOL     OW28320   0.579   6.862   6.712
 5430SOL    HW128321   0.530   6.807   6.779
 5430SOL    HW228322   0.520   6.937   6.681
 5431SOL     OW28323   5.314  -0.043   6.389
 5431SOL    HW128324   5.304  -0.128   6.338
 5431SOL    HW228325   5.228   0.007   6.389
 5432SOL     OW28326   2.446   0.475   0.716
 5432SOL    HW128327   2.440   0.485   0.816
 5432SOL    HW228328   2.436   0.378   0.692
 5433SOL     OW28329   4.233   3.002   0.636
 5433SOL    HW128330   4.286   3.053   0.569
 5433SOL    HW228331   4.295   2.949   0.694
 5434SOL     OW28332   3.072   6.487   0.786
 5434SOL    HW128333   3.018   6.424   0.842
 5434SOL    HW228334   3.169   6.472   0.803
 5435SOL     OW28335   2.781   1.493   0.762
 5435SOL    HW128336   2.871   1.530   0.787
 5435SOL    HW228337   2.793   1.414   0.702
 5436SOL     OW28338   1.467   0.592   4.939
 5436SOL    HW128339   1.419   0.506   4.956
 5436SOL    HW228340   1.418   0.643   4.868
 5437SOL     OW28341   3.806   2.511   5.435
 5437SOL    HW128342   3.842   2.604   5.423
 5437SOL    HW228343   3.807   2.464   5.347
 5438SOL     OW28344   5.414   6.119   6.564
 5438SOL    HW128345   5.512   6.118   6.584
 5438SOL    HW228346   5.365   6.066   6.633
 5439SOL     OW28347   4.128   7.443   0.647
 5439SOL    HW128348   4.203   7.502   0.676
 5439SOL    HW228349   4.165   7.362   0.602
 5440SOL     OW28350   6.960   2.280   0.441
 5440SOL    HW128351   6.883   2.307   0.500
 5440SOL    HW228352   7.046   2.296   0.489
 5441SOL     OW28353   3.459   7.686   6.803
 5441SOL    HW128354   3.393   7.699   6.877
 5441SOL    HW228355   3.505   7.598   6.816
 5442SOL     OW28356   3.901   1.079   6.070
 5442SOL    HW128357   3.938   1.025   6.146
 5442SOL    HW228358   3.801   1.067   6.066
 5443SOL     OW28359   1.262   2.447   1.460
 5443SOL    HW128360   1.196   2.509   1.419
 5443SOL    HW228361   1.236   2.428   1.555
 5444SOL     OW28362   1.519   2.385   6.486
 5444SOL    HW128363   1.500   2.471   6.534
 5444SOL    HW228364   1.451   2.317   6.513
 5445SOL     OW28365   2.841   2.915   6.499
 5445SOL    HW128366   2.832   3.010   6.528
 5445SOL    HW228367   2.757   2.865   6.523
 5446SOL     OW28368   8.591   0.389   0.327
 5446SOL    HW128369   8.505   0.339   0.343
 5446SOL    HW228370   8.612   0.387   0.229
 5447SOL     OW28371   6.462   5.149   5.790
 5447SOL    HW128372   6.407   5.082   5.740
 5447SOL    HW228373   6.510   5.208   5.726
 5448SOL     OW28374   5.816   0.050   6.518
 5448SOL    HW128375   5.758   0.095   6.587
 5448SOL    HW228376   5.908   0.039   6.555
 5449SOL     OW28377   2.173   3.906   6.126
 5449SOL    HW128378   2.241   3.877   6.059
 5449SOL    HW228379   2.127   3.825   6.163
 5450SOL     OW28380   1.517   7.167   5.754
 5450SOL    HW128381   1.510   7.261   5.788
 5450SOL    HW228382   1.471   7.160   5.665
 5451SOL     OW28383   2.525   0.847   5.966
 5451SOL    HW128384   2.517   0.913   5.891
 5451SOL    HW228385   2.596   0.878   6.029
 5452SOL     OW28386   5.754   1.141   1.617
 5452SOL    HW128387   5.696   1.213   1.655
 5452SOL    HW228388   5.703   1.055   1.617
 5453SOL     OW28389   6.021   5.019   1.945
 5453SOL    HW128390   6.067   5.106   1.929
 5453SOL    HW228391   6.016   5.002   2.044
 5454SOL     OW28392   8.195   8.191   5.754
 5454SOL    HW128393   8.294   8.204   5.755
 5454SOL    HW228394   8.156   8.235   5.673
 5455SOL     OW28395   6.999   2.386   1.373
 5455SOL    HW128396   7.027   2.364   1.280
 5455SOL    HW228397   6.914   2.338   1.395
 5456SOL     OW28398   6.764   7.773   0.661
 5456SOL    HW128399   6.674   7.816   0.671
 5456SOL    HW228400   6.832   7.843   0.644
 5457SOL     OW28401   2.450   2.471   6.346
 5457SOL    HW128402   2.396   2.410   6.403
 5457SOL    HW228403   2.537   2.492   6.393
 5458SOL     OW28404   8.781   6.694   4.817
 5458SOL    HW128405   8.835   6.725   4.738
 5458SOL    HW228406   8.751   6.600   4.803
 5459SOL     OW28407   8.472   7.600   6.388
 5459SOL    HW128408   8.474   7.524   6.323
 5459SOL    HW228409   8.423   7.572   6.471
 5460SOL     OW28410   7.006   1.176   6.128
 5460SOL    HW128411   7.087   1.203   6.075
 5460SOL    HW228412   6.939   1.134   6.066
 5461SOL     OW28413   1.219   0.879   0.636
 5461SOL    HW128414   1.178   0.955   0.585
 5461SOL    HW228415   1.304   0.851   0.591
 5462SOL     OW28416   7.010   4.259   5.507
 5462SOL    HW128417   7.016   4.276   5.408
 5462SOL    HW228418   6.987   4.164   5.523
 5463SOL     OW28419   9.395   4.078   6.498
 5463SOL    HW128420   9.319   4.132   6.535
 5463SOL    HW228421   9.381   4.063   6.400
 5464SOL     OW28422   2.455   4.890   5.196
 5464SOL    HW128423   2.549   4.870   5.167
 5464SOL    HW228424   2.392   4.831   5.145
 5465SOL     OW28425   9.333   6.229   5.151
 5465SOL    HW128426   9.381   6.255   5.067
 5465SOL    HW228427   9.237   6.209   5.130
 5466SOL     OW28428   1.004   4.845   5.344
 5466SOL    HW128429   1.089   4.800   5.369
 5466SOL    HW228430   0.970   4.807   5.258
 5467SOL     OW28431   4.605   0.140   2.175
 5467SOL    HW128432   4.555   0.220   2.143
 5467SOL    HW228433   4.677   0.169   2.238
 5468SOL     OW28434   5.059   6.425   5.523
 5468SOL    HW128435   5.143   6.377   5.548
 5468SOL    HW228436   5.001   6.364   5.468
 5469SOL     OW28437   0.668   4.551   1.440
 5469SOL    HW128438   0.699   4.486   1.510
 5469SOL    HW228439   0.701   4.642   1.463
 5470SOL     OW28440   3.998   7.395   5.358
 5470SOL    HW128441   4.006   7.432   5.266
 5470SOL    HW228442   4.015   7.297   5.356
 5471SOL     OW28443   2.225   4.592   6.276
 5471SOL    HW128444   2.184   4.592   6.367
 5471SOL    HW228445   2.254   4.685   6.252
 5472SOL     OW28446   8.013   1.744   1.664
 5472SOL    HW128447   7.997   1.663   1.722
 5472SOL    HW228448   8.085   1.800   1.704
 5473SOL     OW28449   6.718   7.250   0.333
 5473SOL    HW128450   6.759   7.159   0.327
 5473SOL    HW228451   6.657   7.264   0.255
 5474SOL     OW28452   6.090   1.778   6.806
 5474SOL    HW128453   6.171   1.818   6.850
 5474SOL    HW228454   6.085   1.809   6.711
 5475SOL     OW28455   5.741   5.922   1.122
 5475SOL    HW128456   5.709   6.014   1.101
 5475SOL    HW228457   5.833   5.926   1.161
 5476SOL     OW28458   3.262   4.243   0.416
 5476SOL    HW128459   3.325   4.318   0.397
 5476SOL    HW228460   3.181   4.252   0.358
 5477SOL     OW28461   7.093   2.039   6.431
 5477SOL    HW128462   7.090   1.975   6.508
 5477SOL    HW228463   7.117   1.990   6.347
 5478SOL     OW28464   1.001   3.147   6.570
 5478SOL    HW128465   1.014   3.049   6.583
 5478SOL    HW228466   0.930   3.180   6.634
 5479SOL     OW28467   5.801   7.107   5.548
 5479SOL    HW128468   5.798   7.186   5.486
 5479SOL    HW228469   5.897   7.084   5.566
 5480SOL     OW28470   1.567   4.784   0.490
 5480SOL    HW128471   1.547   4.770   0.393
 5480SOL    HW228472   1.649   4.840   0.499
 5481SOL     OW28473   4.167   6.988   1.436
 5481SOL    HW128474   4.110   6.922   1.388
 5481SOL    HW228475   4.180   7.069   1.379
 5482SOL     OW28476   4.240   1.751   5.752
 5482SOL    HW128477   4.309   1.689   5.714
 5482SOL    HW228478   4.167   1.764   5.685
 5483SOL     OW28479   4.254   7.134   6.939
 5483SOL    HW128480   4.340   7.086   6.922
 5483SOL    HW228481   4.219   7.171   6.853
 5484SOL     OW28482   2.404   0.143   2.067
 5484SOL    HW128483   2.372   0.198   2.144
 5484SOL    HW228484   2.436   0.055   2.100
 5485SOL     OW28485   0.284   5.878   0.358
 5485SOL    HW128486   0.239   5.794   0.328
 5485SOL    HW228487   0.380   5.860   0.377
 5486SOL     OW28488   1.319   7.319   1.191
 5486SOL    HW128489   1.285   7.279   1.276
 5486SOL    HW228490   1.243   7.329   1.126
 5487SOL     OW28491   6.208   5.241   0.746
 5487SOL    HW128492   6.243   5.251   0.652
 5487SOL    HW228493   6.187   5.331   0.783
 5488SOL     OW28494   7.646   6.928   0.811
 5488SOL    HW128495   7.615   6.963   0.899
 5488SOL    HW228496   7.739   6.893   0.820
 5489SOL     OW28497   7.518   8.253   1.116
 5489SOL    HW128498   7.470   8.280   1.200
 5489SOL    HW228499   7.479   8.302   1.038
 5490SOL     OW28500   1.182   1.747   2.009
 5490SOL    HW128501   1.163   1.782   1.917
 5490SOL    HW228502   1.240   1.812   2.058
 5491SOL     OW28503   1.159   1.914   6.184
 5491SOL    HW128504   1.183   2.003   6.223
 5491SOL    HW228505   1.198   1.906   6.092
 5492SOL     OW28506   7.032   6.212   6.657
 5492SOL    HW128507   7.040   6.232   6.755
 5492SOL    HW228508   6.937   6.192   6.635
 5493SOL     OW28509   7.530   0.293   6.614
 5493SOL    HW128510   7.431   0.291   6.598
 5493SOL    HW228511   7.562   0.201   6.638
 5494SOL     OW28512   2.466   6.971   5.457
 5494SOL    HW128513   2.407   7.046   5.429
 5494SOL    HW228514   2.544   6.964   5.394
 5495SOL     OW28515   6.106   1.200   5.779
 5495SOL    HW128516   6.041   1.141   5.730
 5495SOL    HW228517   6.195   1.154   5.785
 5496SOL     OW28518   3.324   0.469   0.531
 5496SOL    HW128519   3.256   0.399   0.552
 5496SOL    HW228520   3.372   0.444   0.447
 5497SOL     OW28521   6.046   2.992   5.763
 5497SOL    HW128522   5.999   2.904   5.754
 5497SOL    HW228523   6.007   3.057   5.697
 5498SOL     OW28524   8.140   2.565   6.503
 5498SOL    HW128525   8.202   2.575   6.426
 5498SOL    HW228526   8.179   2.611   6.583
 5499SOL     OW28527   0.641   0.813   0.958
 5499SOL    HW128528   0.695   0.873   0.899
 5499SOL    HW228529   0.590   0.748   0.901
 5500SOL     OW28530   6.839   5.538   0.532
 5500SOL    HW128531   6.813   5.458   0.587
 5500SOL    HW228532   6.872   5.508   0.443
 5501SOL     OW28533   6.680   0.100   1.063
 5501SOL    HW128534   6.757   0.094   1.126
 5501SOL    HW228535   6.651   0.008   1.037
 5502SOL     OW28536   1.148   6.333   5.535
 5502SOL    HW128537   1.243   6.360   5.547
 5502SOL    HW228538   1.135   6.241   5.572
 5503SOL     OW28539   1.146   7.396   0.996
 5503SOL    HW128540   1.056   7.353   0.995
 5503SOL    HW228541   1.173   7.419   0.902
 5504SOL     OW28542   5.909   1.718   2.270
 5504SOL    HW128543   5.969   1.643   2.295
 5504SOL    HW228544   5.814   1.687   2.271
 5505SOL     OW28545   8.992   1.530   1.274
 5505SOL    HW128546   8.965   1.626   1.281
 5505SOL    HW228547   8.916   1.471   1.302
 5506SOL     OW28548   3.037   2.794   6.681
 5506SOL    HW128549   2.965   2.830   6.621
 5506SOL    HW228550   3.096   2.732   6.629
 5507SOL     OW28551   9.531   7.725   6.638
 5507SOL    HW128552   9.486   7.755   6.722
 5507SOL    HW228553   9.540   7.803   6.575
 5508SOL     OW28554   0.897   4.487   0.517
 5508SOL    HW128555   0.833   4.485   0.594
 5508SOL    HW228556   0.889   4.402   0.466
 5509SOL     OW28557   5.567   7.837   6.051
 5509SOL    HW128558   5.493   7.874   5.995
 5509SOL    HW228559   5.637   7.908   6.064
 5510SOL     OW28560   3.448   8.230   1.208
 5510SOL    HW128561   3.356   8.236   1.247
 5510SOL    HW228562   3.479   8.321   1.180
 5511SOL     OW28563   0.949   1.348   6.718
 5511SOL    HW128564   0.925   1.439   6.682
 5511SOL    HW228565   1.047   1.332   6.705
 5512SOL     OW28566   1.285   2.408   0.738
 5512SOL    HW128567   1.283   2.507   0.754
 5512SOL    HW228568   1.375   2.372   0.763
 5513SOL     OW28569   3.354   2.125   1.156
 5513SOL    HW128570   3.345   2.194   1.085
 5513SOL    HW228571   3.372   2.169   1.244
 5514SOL     OW28572   2.895   7.445   1.177
 5514SOL    HW128573   2.960   7.403   1.241
 5514SOL    HW228574   2.834   7.506   1.227
 5515SOL     OW28575   1.103   6.014   0.493
 5515SOL    HW128576   1.036   6.056   0.554
 5515SOL    HW228577   1.076   6.027   0.398
 5516SOL     OW28578   1.803   6.396   1.015
 5516SOL    HW128579   1.792   6.445   0.929
 5516SOL    HW228580   1.713   6.376   1.054
 5517SOL     OW28581   1.552   8.325   0.382
 5517SOL    HW128582   1.478   8.324   0.315
 5517SOL    HW228583   1.534   8.256   0.453
 5518SOL     OW28584   6.663   7.929   1.747
 5518SOL    HW128585   6.718   7.847   1.734
 5518SOL    HW228586   6.636   7.938   1.843
 5519SOL     OW28587   2.932   5.473   5.792
 5519SOL    HW128588   2.929   5.448   5.696
 5519SOL    HW228589   2.993   5.410   5.841
 5520SOL     OW28590   9.459   7.494   5.087
 5520SOL    HW128591   9.460   7.578   5.141
 5520SOL    HW228592   9.365   7.459   5.081
 5521SOL     OW28593   8.173   6.509   0.605
 5521SOL    HW128594   8.160   6.432   0.668
 5521SOL    HW228595   8.119   6.493   0.522
 5522SOL     OW28596   1.169   7.911   1.393
 5522SOL    HW128597   1.152   7.932   1.489
 5522SOL    HW228598   1.232   7.833   1.387
 5523SOL     OW28599   4.014   6.319   1.334
 5523SOL    HW128600   3.957   6.249   1.378
 5523SOL    HW228601   4.106   6.282   1.318
 5524SOL     OW28602   6.110   7.671   5.777
 5524SOL    HW128603   6.034   7.609   5.797
 5524SOL    HW228604   6.121   7.679   5.678
 5525SOL     OW28605   2.189   8.010   0.643
 5525SOL    HW128606   2.178   7.920   0.600
 5525SOL    HW228607   2.285   8.037   0.638
 5526SOL     OW28608   0.539   0.594   6.773
 5526SOL    HW128609   0.631   0.633   6.778
 5526SOL    HW228610   0.508   0.570   6.865
 5527SOL     OW28611   5.008   8.118   5.191
 5527SOL    HW128612   4.954   8.202   5.205
 5527SOL    HW228613   4.950   8.038   5.205
 5528SOL     OW28614   5.373   7.182   6.699
 5528SOL    HW128615   5.384   7.092   6.740
 5528SOL    HW228616   5.279   7.193   6.668
 5529SOL     OW28617   5.067   5.468   5.729
 5529SOL    HW128618   5.062   5.399   5.656
 5529SOL    HW228619   5.106   5.552   5.693
 5530SOL     OW28620   7.782   4.853   0.379
 5530SOL    HW128621   7.858   4.793   0.404
 5530SOL    HW228622   7.802   4.899   0.293
 5531SOL     OW28623   7.940   0.547   6.223
 5531SOL    HW128624   7.945   0.448   6.207
 5531SOL    HW228625   7.859   0.584   6.178
 5532SOL     OW28626   4.322   0.362   6.518
 5532SOL    HW128627   4.256   0.292   6.490
 5532SOL    HW228628   4.373   0.394   6.438
 5533SOL     OW28629   2.744   1.014   0.301
 5533SOL    HW128630   2.728   1.063   0.387
 5533SOL    HW228631   2.656   0.983   0.264
 5534SOL     OW28632   0.980   6.403   1.129
 5534SOL    HW128633   0.908   6.432   1.065
 5534SOL    HW228634   0.997   6.475   1.196
 5535SOL     OW28635   0.591   7.430   4.666
 5535SOL    HW128636   0.639   7.518   4.668
 5535SOL    HW228637   0.518   7.434   4.598
 5536SOL     OW28638   6.347   6.943   1.093
 5536SOL    HW128639   6.299   6.857   1.076
 5536SOL    HW228640   6.317   7.011   1.026
 5537SOL     OW28641   7.082   7.162   6.805
 5537SOL    HW128642   7.056   7.258   6.799
 5537SOL    HW228643   7.107   7.140   6.900
 5538SOL     OW28644   5.612   5.273   6.662
 5538SOL    HW128645   5.620   5.298   6.758
 5538SOL    HW228646   5.625   5.174   6.652
 5539SOL     OW28647   5.298   7.423   1.497
 5539SOL    HW128648   5.365   7.424   1.571
 5539SOL    HW228649   5.247   7.337   1.499
 5540SOL     OW28650   7.247   1.575   6.147
 5540SOL    HW128651   7.168   1.568   6.086
 5540SOL    HW228652   7.328   1.595   6.093
 5541SOL     OW28653   5.520   6.587   2.319
 5541SOL    HW128654   5.453   6.655   2.349
 5541SOL    HW228655   5.611   6.615   2.349
 5542SOL     OW28656   6.996   4.160   1.240
 5542SOL    HW128657   6.931   4.174   1.314
 5542SOL    HW228658   7.022   4.248   1.200
 5543SOL     OW28659   5.458   1.330   6.915
 5543SOL    HW128660   5.459   1.275   6.998
 5543SOL    HW228661   5.422   1.421   6.936
 5544SOL     OW28662   5.325   0.191   1.593
 5544SOL    HW128663   5.320   0.282   1.634
 5544SOL    HW228664   5.316   0.122   1.664
 5545SOL     OW28665   8.769   1.489   5.955
 5545SOL    HW128666   8.702   1.449   6.016
 5545SOL    HW228667   8.723   1.527   5.875
 5546SOL     OW28668   3.599   8.324   6.138
 5546SOL    HW128669   3.532   8.363   6.202
 5546SOL    HW228670   3.689   8.323   6.182
 5547SOL     OW28671   6.443   6.510   6.630
 5547SOL    HW128672   6.409   6.434   6.685
 5547SOL    HW228673   6.526   6.481   6.581
 5548SOL     OW28674   9.528   5.782   6.933
 5548SOL    HW128675   9.551   5.880   6.928
 5548SOL    HW228676   9.512   5.757   7.029
 5549SOL     OW28677   4.758   4.305   0.883
 5549SOL    HW128678   4.822   4.297   0.959
 5549SOL    HW228679   4.797   4.365   0.813
 5550SOL     OW28680   7.278   6.625   2.019
 5550SOL    HW128681   7.339   6.563   2.069
 5550SOL    HW228682   7.224   6.678   2.084
 5551SOL     OW28683   3.094   5.304   5.915
 5551SOL    HW128684   3.134   5.212   5.906
 5551SOL    HW228685   3.134   5.350   5.994
 5552SOL     OW28686   2.720   2.756   6.223
 5552SOL    HW128687   2.726   2.676   6.162
 5552SOL    HW228688   2.695   2.726   6.315
 5553SOL     OW28689   2.007   4.797   0.684
 5553SOL    HW128690   2.035   4.764   0.594
 5553SOL    HW228691   1.966   4.888   0.675
 5554SOL     OW28692   9.089   6.777   0.918
 5554SOL    HW128693   9.014   6.832   0.954
 5554SOL    HW228694   9.176   6.818   0.946
 5555SOL     OW28695   0.797   7.273   1.275
 5555SOL    HW128696   0.793   7.335   1.196
 5555SOL    HW228697   0.705   7.239   1.295
 5556SOL     OW28698   5.404   3.950   0.676
 5556SOL    HW128699   5.384   3.916   0.584
 5556SOL    HW228700   5.318   3.970   0.724
 5557SOL     OW28701   5.293   2.475   6.698
 5557SOL    HW128702   5.384   2.456   6.733
 5557SOL    HW228703   5.228   2.407   6.733
 5558SOL     OW28704   2.611   4.687   1.357
 5558SOL    HW128705   2.562   4.661   1.274
 5558SOL    HW228706   2.579   4.776   1.389
 5559SOL     OW28707   2.159   5.061   6.418
 5559SOL    HW128708   2.118   5.152   6.419
 5559SOL    HW228709   2.117   5.006   6.346
 5560SOL     OW28710   3.076   6.968   1.334
 5560SOL    HW128711   3.148   7.036   1.348
 5560SOL    HW228712   3.038   6.942   1.423
 5561SOL     OW28713   4.475   1.223   0.689
 5561SOL    HW128714   4.543   1.253   0.622
 5561SOL    HW228715   4.396   1.285   0.687
 5562SOL     OW28716   5.402   6.922   6.861
 5562SOL    HW128717   5.384   6.844   6.801
 5562SOL    HW228718   5.500   6.927   6.881
 5563SOL     OW28719   6.197   8.080   6.834
 5563SOL    HW128720   6.156   7.990   6.849
 5563SOL    HW228721   6.274   8.092   6.896
 5564SOL     OW28722   9.543   2.177   5.520
 5564SOL    HW128723   9.484   2.166   5.440
 5564SOL    HW228724   9.624   2.118   5.511
 5565SOL     OW28725   3.780   4.136   0.440
 5565SOL    HW128726   3.691   4.092   0.453
 5565SOL    HW228727   3.775   4.198   0.362
 5566SOL     OW28728   2.417   5.611   5.180
 5566SOL    HW128729   2.510   5.602   5.143
 5566SOL    HW228730   2.401   5.707   5.205
 5567SOL     OW28731   2.621   6.237   6.284
 5567SOL    HW128732   2.603   6.277   6.194
 5567SOL    HW228733   2.575   6.149   6.291
 5568SOL     OW28734   2.907   7.211   1.862
 5568SOL    HW128735   2.916   7.267   1.780
 5568SOL    HW228736   2.872   7.268   1.937
 5569SOL     OW28737   3.233   2.286   5.876
 5569SOL    HW128738   3.229   2.196   5.833
 5569SOL    HW228739   3.226   2.357   5.805
 5570SOL     OW28740   4.849   0.296   1.093
 5570SOL    HW128741   4.920   0.352   1.050
 5570SOL    HW228742   4.765   0.302   1.039
 5571SOL     OW28743   9.409   0.802   1.024
 5571SOL    HW128744   9.390   0.796   1.122
 5571SOL    HW228745   9.400   0.711   0.983
 5572SOL     OW28746   4.253   4.575   6.622
 5572SOL    HW128747   4.216   4.638   6.553
 5572SOL    HW228748   4.180   4.549   6.686
 5573SOL     OW28749   3.469   6.017   1.220
 5573SOL    HW128750   3.444   6.061   1.307
 5573SOL    HW228751   3.406   6.044   1.149
 5574SOL     OW28752   3.206   2.902   1.619
 5574SOL    HW128753   3.152   2.883   1.701
 5574SOL    HW228754   3.303   2.887   1.639
 5575SOL     OW28755   7.191   4.636   0.710
 5575SOL    HW128756   7.098   4.664   0.687
 5575SOL    HW228757   7.255   4.676   0.644
 5576SOL     OW28758   7.427   6.474   5.247
 5576SOL    HW128759   7.494   6.507   5.182
 5576SOL    HW228760   7.345   6.444   5.198
 5577SOL     OW28761   2.188   6.109   0.663
 5577SOL    HW128762   2.201   6.072   0.570
 5577SOL    HW228763   2.258   6.178   0.681
 5578SOL     OW28764   6.942   5.196   5.370
 5578SOL    HW128765   6.940   5.278   5.426
 5578SOL    HW228766   7.014   5.205   5.300
 5579SOL     OW28767   4.266   7.579   6.846
 5579SOL    HW128768   4.190   7.514   6.856
 5579SOL    HW228769   4.261   7.648   6.918
 5580SOL     OW28770   1.897   8.391   1.514
 5580SOL    HW128771   1.984   8.342   1.513
 5580SOL    HW228772   1.822   8.324   1.506
 5581SOL     OW28773   0.815   3.232   5.955
 5581SOL    HW128774   0.884   3.227   6.028
 5581SOL    HW228775   0.812   3.144   5.907
 5582SOL     OW28776   0.686   7.312   4.137
 5582SOL    HW128777   0.782   7.314   4.165
 5582SOL    HW228778   0.635   7.382   4.187
 5583SOL     OW28779   5.510   1.828   1.834
 5583SOL    HW128780   5.459   1.912   1.813
 5583SOL    HW228781   5.446   1.751   1.836
 5584SOL     OW28782   3.688   2.431   6.221
 5584SOL    HW128783   3.623   2.411   6.294
 5584SOL    HW228784   3.663   2.379   6.139
 5585SOL     OW28785   6.481   2.601   6.136
 5585SOL    HW128786   6.400   2.542   6.134
 5585SOL    HW228787   6.562   2.549   6.111
 5586SOL     OW28788   6.094   8.377   0.925
 5586SOL    HW128789   6.006   8.422   0.909
 5586SOL    HW228790   6.079   8.282   0.950
 5587SOL     OW28791   5.413   1.477   1.145
 5587SOL    HW128792   5.424   1.378   1.149
 5587SOL    HW228793   5.460   1.513   1.065
 5588SOL     OW28794   1.181   2.431   6.658
 5588SOL    HW128795   1.193   2.441   6.757
 5588SOL    HW228796   1.244   2.361   6.624
 5589SOL     OW28797   1.802   4.581   6.135
 5589SOL    HW128798   1.729   4.600   6.200
 5589SOL    HW228799   1.778   4.619   6.045
 5590SOL     OW28800   3.549   7.421   6.768
 5590SOL    HW128801   3.471   7.393   6.712
 5590SOL    HW228802   3.562   7.355   6.842
 5591SOL     OW28803   1.278   2.796   0.263
 5591SOL    HW128804   1.312   2.854   0.189
 5591SOL    HW228805   1.352   2.739   0.297
 5592SOL     OW28806   3.150   7.785   5.546
 5592SOL    HW128807   3.241   7.827   5.545
 5592SOL    HW228808   3.110   7.792   5.455
 5593SOL     OW28809   3.015   7.078   0.716
 5593SOL    HW128810   3.040   7.012   0.646
 5593SOL    HW228811   2.924   7.057   0.752
 5594SOL     OW28812   0.360   2.354   5.751
 5594SOL    HW128813   0.311   2.279   5.795
 5594SOL    HW228814   0.455   2.329   5.738
 5595SOL     OW28815   0.368   8.113   0.876
 5595SOL    HW128816   0.348   8.126   0.779
 5595SOL    HW228817   0.351   8.018   0.901
 5596SOL     OW28818   1.923   3.458   5.532
 5596SOL    HW128819   1.945   3.416   5.620
 5596SOL    HW228820   1.939   3.392   5.459
 5597SOL     OW28821   7.834   1.552   0.392
 5597SOL    HW128822   7.747   1.601   0.381
 5597SOL    HW228823   7.906   1.616   0.417
 5598SOL     OW28824   3.234   4.140   6.389
 5598SOL    HW128825   3.171   4.071   6.423
 5598SOL    HW228826   3.257   4.204   6.462
 5599SOL     OW28827   5.287   3.204   1.665
 5599SOL    HW128828   5.260   3.242   1.753
 5599SOL    HW228829   5.373   3.155   1.675
 5600SOL     OW28830   1.938   2.149   6.594
 5600SOL    HW128831   1.893   2.217   6.537
 5600SOL    HW228832   1.941   2.180   6.689
 5601SOL     OW28833   4.012   6.710   1.623
 5601SOL    HW128834   4.016   6.634   1.688
 5601SOL    HW228835   4.024   6.674   1.530
 5602SOL     OW28836   7.635   0.822   0.728
 5602SOL    HW128837   7.701   0.756   0.765
 5602SOL    HW228838   7.656   0.913   0.763
 5603SOL     OW28839   5.363   2.343   2.157
 5603SOL    HW128840   5.457   2.334   2.191
 5603SOL    HW228841   5.300   2.351   2.234
 5604SOL     OW28842   2.578   2.890   5.828
 5604SOL    HW128843   2.569   2.854   5.735
 5604SOL    HW228844   2.666   2.937   5.837
 5605SOL     OW28845   5.249   8.125   6.738
 5605SOL    HW128846   5.342   8.112   6.704
 5605SOL    HW228847   5.223   8.221   6.727
 5606SOL     OW28848   5.302   4.891   5.786
 5606SOL    HW128849   5.344   4.979   5.809
 5606SOL    HW228850   5.209   4.905   5.752
 5607SOL     OW28851   8.313   1.034   6.884
 5607SOL    HW128852   8.373   0.973   6.832
 5607SOL    HW228853   8.345   1.037   6.979
 5608SOL     OW28854   8.386   3.688   0.370
 5608SOL    HW128855   8.345   3.655   0.455
 5608SOL    HW228856   8.406   3.610   0.310
 5609SOL     OW28857   3.429   0.369   0.764
 5609SOL    HW128858   3.416   0.271   0.752
 5609SOL    HW228859   3.385   0.418   0.689
 5610SOL     OW28860   3.354   7.713   6.556
 5610SOL    HW128861   3.389   7.690   6.647
 5610SOL    HW228862   3.303   7.635   6.520
 5611SOL     OW28863   6.576   7.208   5.511
 5611SOL    HW128864   6.480   7.188   5.533
 5611SOL    HW228865   6.607   7.146   5.439
 5612SOL     OW28866   3.694   5.259   1.569
 5612SOL    HW128867   3.729   5.352   1.556
 5612SOL    HW228868   3.671   5.245   1.665
 5613SOL     OW28869   5.418   6.369   6.175
 5613SOL    HW128870   5.337   6.423   6.194
 5613SOL    HW228871   5.394   6.272   6.176
 5614SOL     OW28872   9.080   2.109   5.302
 5614SOL    HW128873   8.985   2.124   5.277
 5614SOL    HW228874   9.098   2.149   5.392
 5615SOL     OW28875   6.457   8.176   6.560
 5615SOL    HW128876   6.384   8.232   6.600
 5615SOL    HW228877   6.545   8.207   6.595
 5616SOL     OW28878   2.342   0.641   6.003
 5616SOL    HW128879   2.335   0.592   5.916
 5616SOL    HW228880   2.422   0.701   6.001
 5617SOL     OW28881   4.250   3.762   6.719
 5617SOL    HW128882   4.280   3.672   6.750
 5617SOL    HW228883   4.278   3.777   6.624
 5618SOL     OW28884   2.557   2.628   5.276
 5618SOL    HW128885   2.656   2.640   5.279
 5618SOL    HW228886   2.519   2.680   5.199
 5619SOL     OW28887   2.021   0.011   6.484
 5619SOL    HW128888   2.055   0.074   6.553
 5619SOL    HW228889   2.089   0.002   6.411
 5620SOL     OW28890   5.479   8.243   2.348
 5620SOL    HW128891   5.578   8.248   2.359
 5620SOL    HW228892   5.438   8.331   2.371
 5621SOL     OW28893   3.512   6.792   6.023
 5621SOL    HW128894   3.494   6.695   6.007
 5621SOL    HW228895   3.432   6.846   5.997
 5622SOL     OW28896   5.351   2.034   0.981
 5622SOL    HW128897   5.331   2.120   1.028
 5622SOL    HW228898   5.357   1.960   1.049
 5623SOL     OW28899   6.724   1.799   1.834
 5623SOL    HW128900   6.710   1.801   1.932
 5623SOL    HW228901   6.647   1.753   1.790
 5624SOL     OW28902   6.453   3.423   6.664
 5624SOL    HW128903   6.482   3.518   6.656
 5624SOL    HW228904   6.533   3.364   6.675
 5625SOL     OW28905   2.230   6.583   6.696
 5625SOL    HW128906   2.175   6.645   6.640
 5625SOL    HW228907   2.170   6.516   6.740
 5626SOL     OW28908   4.128   0.462   0.487
 5626SOL    HW128909   4.223   0.485   0.468
 5626SOL    HW228910   4.112   0.366   0.464
 5627SOL     OW28911   6.940   7.140   1.952
 5627SOL    HW128912   6.900   7.050   1.937
 5627SOL    HW228913   7.016   7.133   2.018
 5628SOL     OW28914   8.300   4.315   5.896
 5628SOL    HW128915   8.242   4.234   5.885
 5628SOL    HW228916   8.387   4.288   5.936
 5629SOL     OW28917   1.356   7.919   6.496
 5629SOL    HW128918   1.389   7.933   6.403
 5629SOL    HW228919   1.411   7.848   6.540
 5630SOL     OW28920   5.313   0.926   6.665
 5630SOL    HW128921   5.411   0.946   6.670
 5630SOL    HW228922   5.277   0.915   6.758
 5631SOL     OW28923   6.428   3.849   1.295
 5631SOL    HW128924   6.470   3.929   1.254
 5631SOL    HW228925   6.347   3.823   1.243
 5632SOL     OW28926   6.703   0.539   1.569
 5632SOL    HW128927   6.786   0.484   1.570
 5632SOL    HW228928   6.659   0.537   1.658
 5633SOL     OW28929   6.070   4.417   1.559
 5633SOL    HW128930   6.120   4.464   1.632
 5633SOL    HW228931   6.091   4.319   1.563
 5634SOL     OW28932   3.298   2.513   6.051
 5634SOL    HW128933   3.246   2.430   6.030
 5634SOL    HW228934   3.284   2.580   5.978
 5635SOL     OW28935   1.412   3.170   6.724
 5635SOL    HW128936   1.439   3.108   6.650
 5635SOL    HW228937   1.332   3.134   6.771
 5636SOL     OW28938   1.788   4.566   0.396
 5636SOL    HW128939   1.833   4.636   0.339
 5636SOL    HW228940   1.729   4.611   0.463
 5637SOL     OW28941   0.491   5.776   1.029
 5637SOL    HW128942   0.525   5.788   0.936
 5637SOL    HW228943   0.567   5.751   1.089
 5638SOL     OW28944   8.288   1.090   0.724
 5638SOL    HW128945   8.200   1.124   0.690
 5638SOL    HW228946   8.335   1.163   0.773
 5639SOL     OW28947   8.579   3.238   5.974
 5639SOL    HW128948   8.513   3.170   5.941
 5639SOL    HW228949   8.610   3.213   6.065
 5640SOL     OW28950   0.687   0.821   5.343
 5640SOL    HW128951   0.676   0.903   5.288
 5640SOL    HW228952   0.628   0.748   5.306
 5641SOL     OW28953   1.859   2.614   5.429
 5641SOL    HW128954   1.861   2.530   5.376
 5641SOL    HW228955   1.914   2.684   5.383
 5642SOL     OW28956   9.174   7.097   6.417
 5642SOL    HW128957   9.195   7.063   6.325
 5642SOL    HW228958   9.083   7.138   6.417
 5643SOL     OW28959   6.887   4.221   0.417
 5643SOL    HW128960   6.868   4.125   0.439
 5643SOL    HW228961   6.806   4.262   0.374
 5644SOL     OW28962   7.456   5.796   6.298
 5644SOL    HW128963   7.381   5.857   6.324
 5644SOL    HW228964   7.501   5.761   6.380
 5645SOL     OW28965   0.759   2.499   6.832
 5645SOL    HW128966   0.669   2.520   6.795
 5645SOL    HW228967   0.768   2.538   6.924
 5646SOL     OW28968   8.355   7.976   6.831
 5646SOL    HW128969   8.296   8.022   6.764
 5646SOL    HW228970   8.438   7.943   6.785
 5647SOL     OW28971   8.279   3.521   6.204
 5647SOL    HW128972   8.286   3.453   6.132
 5647SOL    HW228973   8.236   3.604   6.168
 5648SOL     OW28974   2.294   3.869   1.038
 5648SOL    HW128975   2.261   3.963   1.049
 5648SOL    HW228976   2.294   3.845   0.941
 5649SOL     OW28977   0.757   2.290   1.230
 5649SOL    HW128978   0.729   2.207   1.279
 5649SOL    HW228979   0.691   2.363   1.248
 5650SOL     OW28980   5.299   7.043   1.229
 5650SOL    HW128981   5.389   7.032   1.186
 5650SOL    HW228982   5.229   7.054   1.158
 5651SOL     OW28983   3.627   2.968   0.591
 5651SOL    HW128984   3.717   2.933   0.616
 5651SOL    HW228985   3.599   3.037   0.658
 5652SOL     OW28986   8.491   6.308   0.794
 5652SOL    HW128987   8.490   6.408   0.795
 5652SOL    HW228988   8.584   6.276   0.813
 5653SOL     OW28989   2.516   5.913   1.074
 5653SOL    HW128990   2.532   5.822   1.036
 5653SOL    HW228991   2.550   5.917   1.168
 5654SOL     OW28992   6.338   4.236   5.780
 5654SOL    HW128993   6.376   4.297   5.850
 5654SOL    HW228994   6.349   4.141   5.809
 5655SOL     OW28995   3.119   0.602   6.075
 5655SOL    HW128996   3.132   0.518   6.128
 5655SOL    HW228997   3.185   0.671   6.104
 5656SOL     OW28998   6.357   2.010   6.186
 5656SOL    HW128999   6.389   1.917   6.207
 5656SOL    HW229000   6.432   2.061   6.144
 5657SOL     OW29001   6.608   3.690   0.465
 5657SOL    HW129002   6.560   3.661   0.548
 5657SOL    HW229003   6.570   3.777   0.433
 5658SOL     OW29004   3.846   0.018   6.526
 5658SOL    HW129005   3.896  -0.061   6.560
 5658SOL    HW229006   3.837   0.012   6.426
 5659SOL     OW29007   2.493   1.376   5.823
 5659SOL    HW129008   2.433   1.448   5.788
 5659SOL    HW229009   2.503   1.304   5.754
 5660SOL     OW29010   4.422   4.803   2.096
 5660SOL    HW129011   4.508   4.753   2.084
 5660SOL    HW229012   4.437   4.880   2.159
 5661SOL     OW29013   7.547   6.028   6.115
 5661SOL    HW129014   7.483   6.038   6.039
 5661SOL    HW229015   7.515   5.956   6.176
 5662SOL     OW29016   3.466   2.446   1.172
 5662SOL    HW129017   3.469   2.369   1.237
 5662SOL    HW229018   3.406   2.423   1.096
 5663SOL     OW29019   7.931   4.664   1.326
 5663SOL    HW129020   8.009   4.602   1.320
 5663SOL    HW229021   7.912   4.685   1.422
 5664SOL     OW29022   4.600   3.750   6.747
 5664SOL    HW129023   4.533   3.698   6.693
 5664SOL    HW229024   4.605   3.843   6.712
 5665SOL     OW29025   5.616   4.995   6.731
 5665SOL    HW129026   5.601   4.925   6.661
 5665SOL    HW229027   5.639   4.951   6.818
 5666SOL     OW29028   3.875   3.822   6.963
 5666SOL    HW129029   3.808   3.895   6.965
 5666SOL    HW229030   3.864   3.769   6.878
 5667SOL     OW29031   5.746   2.167   0.313
 5667SOL    HW129032   5.832   2.207   0.344
 5667SOL    HW229033   5.752   2.067   0.319
 5668SOL     OW29034   8.225   0.182   0.708
 5668SOL    HW129035   8.205   0.113   0.778
 5668SOL    HW229036   8.159   0.256   0.715
 5669SOL     OW29037   7.192   1.270   5.946
 5669SOL    HW129038   7.212   1.236   5.854
 5669SOL    HW229039   7.161   1.365   5.940
 5670SOL     OW29040   4.016   7.483   6.564
 5670SOL    HW129041   3.976   7.489   6.473
 5670SOL    HW229042   3.944   7.495   6.633
 5671SOL     OW29043   8.901   6.297   6.397
 5671SOL    HW129044   8.809   6.335   6.410
 5671SOL    HW229045   8.946   6.287   6.486
 5672SOL     OW29046   1.020   0.025   6.947
 5672SOL    HW129047   0.994   0.122   6.942
 5672SOL    HW229048   1.089   0.005   6.877
 5673SOL     OW29049   0.250   5.801   6.338
 5673SOL    HW129050   0.280   5.744   6.261
 5673SOL    HW229051   0.176   5.754   6.387
 5674SOL     OW29052   5.915   0.920   0.974
 5674SOL    HW129053   5.869   0.888   1.056
 5674SOL    HW229054   5.959   1.008   0.993
 5675SOL     OW29055   2.778   3.673   6.161
 5675SOL    HW129056   2.727   3.755   6.186
 5675SOL    HW229057   2.876   3.689   6.174
 5676SOL     OW29058   5.370   4.164   6.314
 5676SOL    HW129059   5.335   4.077   6.348
 5676SOL    HW229060   5.375   4.161   6.214
 5677SOL     OW29061   2.709   7.738   6.477
 5677SOL    HW129062   2.666   7.669   6.536
 5677SOL    HW229063   2.638   7.799   6.440
 5678SOL     OW29064   1.757   7.097   0.915
 5678SOL    HW129065   1.702   7.120   0.995
 5678SOL    HW229066   1.726   7.009   0.878
 5679SOL     OW29067   4.036   3.246   5.990
 5679SOL    HW129068   3.956   3.239   5.931
 5679SOL    HW229069   4.102   3.174   5.966
 5680SOL     OW29070   1.057   4.443   1.196
 5680SOL    HW129071   1.053   4.387   1.279
 5680SOL    HW229072   0.977   4.502   1.193
 5681SOL     OW29073   2.996   5.796   6.780
 5681SOL    HW129074   3.026   5.867   6.844
 5681SOL    HW229075   2.908   5.822   6.740
 5682SOL     OW29076   3.893   4.019   5.993
 5682SOL    HW129077   3.846   3.931   5.990
 5682SOL    HW229078   3.842   4.087   5.941
 5683SOL     OW29079   7.538   1.717   0.711
 5683SOL    HW129080   7.543   1.665   0.796
 5683SOL    HW229081   7.617   1.779   0.706
 5684SOL     OW29082   6.262   5.362   6.549
 5684SOL    HW129083   6.274   5.345   6.451
 5684SOL    HW229084   6.288   5.280   6.601
 5685SOL     OW29085   6.227   0.917   0.298
 5685SOL    HW129086   6.141   0.968   0.300
 5685SOL    HW229087   6.214   0.832   0.248
 5686SOL     OW29088   1.338   6.566   5.746
 5686SOL    HW129089   1.306   6.641   5.687
 5686SOL    HW229090   1.373   6.492   5.689
 5687SOL     OW29091   1.572   5.444   1.693
 5687SOL    HW129092   1.604   5.512   1.759
 5687SOL    HW229093   1.616   5.356   1.711
 5688SOL     OW29094   0.964   5.125   5.635
 5688SOL    HW129095   1.014   5.210   5.656
 5688SOL    HW229096   1.017   5.047   5.667
 5689SOL     OW29097   5.221   3.649   6.518
 5689SOL    HW129098   5.311   3.690   6.530
 5689SOL    HW229099   5.176   3.639   6.607
 5690SOL     OW29100   3.969   0.895   1.905
 5690SOL    HW129101   4.068   0.886   1.900
 5690SOL    HW229102   3.936   0.857   1.991
 5691SOL     OW29103   4.225   1.003   6.260
 5691SOL    HW129104   4.218   1.044   6.351
 5691SOL    HW229105   4.315   1.022   6.221
 5692SOL     OW29106   1.844   0.832   5.168
 5692SOL    HW129107   1.783   0.810   5.092
 5692SOL    HW229108   1.915   0.762   5.175
 5693SOL     OW29109   5.896   6.813   6.794
 5693SOL    HW129110   5.896   6.722   6.833
 5693SOL    HW229111   5.860   6.810   6.701
 5694SOL     OW29112   6.383   5.704   5.572
 5694SOL    HW129113   6.337   5.632   5.520
 5694SOL    HW229114   6.329   5.725   5.653
 5695SOL     OW29115   5.808   0.120   1.099
 5695SOL    HW129116   5.793   0.150   1.005
 5695SOL    HW229117   5.772   0.188   1.162
 5696SOL     OW29118   7.897   5.319   5.388
 5696SOL    HW129119   7.929   5.229   5.358
 5696SOL    HW229120   7.893   5.380   5.309
 5697SOL     OW29121   1.831   5.522   6.581
 5697SOL    HW129122   1.817   5.499   6.484
 5697SOL    HW229123   1.908   5.585   6.589
 5698SOL     OW29124   0.990   7.365   0.438
 5698SOL    HW129125   1.017   7.288   0.381
 5698SOL    HW229126   0.976   7.334   0.532
 5699SOL     OW29127   3.106   0.243   1.668
 5699SOL    HW129128   3.010   0.258   1.643
 5699SOL    HW229129   3.135   0.153   1.636
 5700SOL     OW29130   6.108   3.497   1.354
 5700SOL    HW129131   6.205   3.517   1.340
 5700SOL    HW229132   6.086   3.505   1.451
 5701SOL     OW29133   9.136   4.210   1.328
 5701SOL    HW129134   9.048   4.204   1.280
 5701SOL    HW229135   9.196   4.275   1.280
 5702SOL     OW29136   2.915   3.051   0.968
 5702SOL    HW129137   2.880   3.100   0.888
 5702SOL    HW229138   2.975   3.111   1.021
 5703SOL     OW29139   2.150   0.494   0.380
 5703SOL    HW129140   2.203   0.552   0.442
 5703SOL    HW229141   2.155   0.532   0.288
 5704SOL     OW29142   3.170   0.774   2.477
 5704SOL    HW129143   3.268   0.771   2.496
 5704SOL    HW229144   3.126   0.841   2.537
 5705SOL     OW29145   3.333   6.457   6.449
 5705SOL    HW129146   3.235   6.449   6.463
 5705SOL    HW229147   3.367   6.537   6.498
 5706SOL     OW29148   6.151   7.504   1.897
 5706SOL    HW129149   6.241   7.489   1.937
 5706SOL    HW229150   6.085   7.525   1.970
 5707SOL     OW29151   8.083   6.866   1.713
 5707SOL    HW129152   8.096   6.965   1.709
 5707SOL    HW229153   8.000   6.845   1.766
 5708SOL     OW29154   3.845   3.655   6.750
 5708SOL    HW129155   3.843   3.558   6.770
 5708SOL    HW229156   3.939   3.682   6.726
 5709SOL     OW29157   2.668   0.558   6.025
 5709SOL    HW129158   2.583   0.506   6.014
 5709SOL    HW229159   2.664   0.641   5.969
 5710SOL     OW29160   4.711   4.936   1.311
 5710SOL    HW129161   4.788   4.871   1.317
 5710SOL    HW229162   4.747   5.029   1.306
 5711SOL     OW29163   1.345   3.947   1.061
 5711SOL    HW129164   1.338   4.046   1.076
 5711SOL    HW229165   1.310   3.899   1.142
 5712SOL     OW29166   7.543   7.076   6.159
 5712SOL    HW129167   7.626   7.122   6.190
 5712SOL    HW229168   7.480   7.065   6.236
 5713SOL     OW29169   5.780   5.259   1.341
 5713SOL    HW129170   5.795   5.348   1.296
 5713SOL    HW229171   5.764   5.273   1.438
 5714SOL     OW29172   5.981   7.454   5.596
 5714SOL    HW129173   5.896   7.456   5.543
 5714SOL    HW229174   6.049   7.513   5.552
 5715SOL     OW29175   3.601   4.835   6.243
 5715SOL    HW129176   3.574   4.784   6.161
 5715SOL    HW229177   3.519   4.869   6.290
 5716SOL     OW29178   3.915   6.247   6.534
 5716SOL    HW129179   4.002   6.239   6.486
 5716SOL    HW229180   3.922   6.205   6.624
 5717SOL     OW29181   8.545   7.290   5.696
 5717SOL    HW129182   8.539   7.387   5.675
 5717SOL    HW229183   8.627   7.251   5.654
 5718SOL     OW29184   2.555   0.287   1.274
 5718SOL    HW129185   2.536   0.258   1.180
 5718SOL    HW229186   2.481   0.346   1.306
 5719SOL     OW29187   3.759   2.342   5.183
 5719SOL    HW129188   3.803   2.302   5.103
 5719SOL    HW229189   3.661   2.351   5.165
 5720SOL     OW29190   0.163   6.587   1.006
 5720SOL    HW129191   0.213   6.638   1.076
 5720SOL    HW229192   0.203   6.496   0.996
 5721SOL     OW29193   0.806   2.859   0.239
 5721SOL    HW129194   0.758   2.771   0.243
 5721SOL    HW229195   0.829   2.888   0.332
 5722SOL     OW29196   6.014   5.121   6.314
 5722SOL    HW129197   5.985   5.080   6.401
 5722SOL    HW229198   5.968   5.074   6.239
 5723SOL     OW29199   8.765   3.093   1.225
 5723SOL    HW129200   8.805   3.010   1.186
 5723SOL    HW229201   8.825   3.128   1.297
 5724SOL     OW29202   8.428   5.267   0.583
 5724SOL    HW129203   8.506   5.326   0.562
 5724SOL    HW229204   8.344   5.312   0.555
 5725SOL     OW29205   4.089   3.688   6.160
 5725SOL    HW129206   4.136   3.602   6.140
 5725SOL    HW229207   4.152   3.749   6.209
 5726SOL     OW29208   0.366   6.390   6.848
 5726SOL    HW129209   0.375   6.396   6.947
 5726SOL    HW229210   0.281   6.434   6.820
 5727SOL     OW29211   8.386   8.346   6.652
 5727SOL    HW129212   8.349   8.342   6.559
 5727SOL    HW229213   8.394   8.441   6.680
 5728SOL     OW29214   1.596   7.827   1.377
 5728SOL    HW129215   1.655   7.893   1.331
 5728SOL    HW229216   1.577   7.858   1.470
 5729SOL     OW29217   3.698   8.229   0.775
 5729SOL    HW129218   3.612   8.248   0.727
 5729SOL    HW229219   3.731   8.138   0.751
 5730SOL     OW29220   1.794   2.870   0.652
 5730SOL    HW129221   1.853   2.947   0.627
 5730SOL    HW229222   1.841   2.811   0.718
 5731SOL     OW29223   9.082   5.702   5.765
 5731SOL    HW129224   9.094   5.801   5.766
 5731SOL    HW229225   9.134   5.662   5.841
 5732SOL     OW29226   2.868   1.402   0.288
 5732SOL    HW129227   2.956   1.399   0.242
 5732SOL    HW229228   2.814   1.321   0.263
 5733SOL     OW29229   2.291   5.009   5.356
 5733SOL    HW129230   2.220   4.939   5.351
 5733SOL    HW229231   2.367   4.984   5.295
 5734SOL     OW29232   2.566   4.152   1.650
 5734SOL    HW129233   2.507   4.071   1.660
 5734SOL    HW229234   2.661   4.124   1.644
 5735SOL     OW29235   6.509   7.040   6.075
 5735SOL    HW129236   6.493   7.072   6.168
 5735SOL    HW229237   6.601   7.066   6.046
 5736SOL     OW29238   7.457   0.079   0.826
 5736SOL    HW129239   7.468  -0.019   0.842
 5736SOL    HW229240   7.543   0.125   0.846
 5737SOL     OW29241   8.842   6.084   4.965
 5737SOL    HW129242   8.919   6.143   4.942
 5737SOL    HW229243   8.871   6.017   5.034
 5738SOL     OW29244   8.188   1.500   0.253
 5738SOL    HW129245   8.126   1.450   0.193
 5738SOL    HW229246   8.264   1.537   0.199
 5739SOL     OW29247   6.330   1.675   5.843
 5739SOL    HW129248   6.290   1.765   5.826
 5739SOL    HW229249   6.256   1.607   5.850
 5740SOL     OW29250   4.585   2.650   6.487
 5740SOL    HW129251   4.530   2.612   6.413
 5740SOL    HW229252   4.660   2.705   6.449
 5741SOL     OW29253   7.280   4.695   1.163
 5741SOL    HW129254   7.289   4.618   1.226
 5741SOL    HW229255   7.366   4.745   1.159
 5742SOL     OW29256   4.633   7.043   1.144
 5742SOL    HW129257   4.567   7.092   1.201
 5742SOL    HW229258   4.597   6.952   1.124
 5743SOL     OW29259   0.564   1.601   0.379
 5743SOL    HW129260   0.522   1.606   0.470
 5743SOL    HW229261   0.614   1.686   0.361
 5744SOL     OW29262   2.025   6.526   1.503
 5744SOL    HW129263   2.085   6.592   1.458
 5744SOL    HW229264   1.995   6.457   1.437
 5745SOL     OW29265   7.264   7.895   5.666
 5745SOL    HW129266   7.334   7.962   5.694
 5745SOL    HW229267   7.235   7.916   5.573
 5746SOL     OW29268   7.328   6.145   1.909
 5746SOL    HW129269   7.376   6.058   1.907
 5746SOL    HW229270   7.379   6.213   1.856
 5747SOL     OW29271   7.412   0.504   0.653
 5747SOL    HW129272   7.339   0.549   0.704
 5747SOL    HW229273   7.498   0.551   0.671
 5748SOL     OW29274   7.922   5.592   6.354
 5748SOL    HW129275   7.937   5.496   6.377
 5748SOL    HW229276   7.884   5.599   6.262
 5749SOL     OW29277   6.142   2.803   0.998
 5749SOL    HW129278   6.216   2.735   0.995
 5749SOL    HW229279   6.055   2.757   1.015
 5750SOL     OW29280   5.814   2.373   1.678
 5750SOL    HW129281   5.762   2.290   1.698
 5750SOL    HW229282   5.755   2.439   1.631
 5751SOL     OW29283   7.328   7.030   6.326
 5751SOL    HW129284   7.260   7.084   6.376
 5751SOL    HW229285   7.351   6.948   6.378
 5752SOL     OW29286   9.066   3.525   6.535
 5752SOL    HW129287   8.998   3.599   6.531
 5752SOL    HW229288   9.104   3.511   6.444
 5753SOL     OW29289   2.787   4.806   5.381
 5753SOL    HW129290   2.745   4.821   5.291
 5753SOL    HW229291   2.877   4.850   5.383
 5754SOL     OW29292   0.250   4.808   0.668
 5754SOL    HW129293   0.169   4.805   0.728
 5754SOL    HW229294   0.231   4.757   0.584
 5755SOL     OW29295   6.594   7.234   6.476
 5755SOL    HW129296   6.549   7.171   6.412
 5755SOL    HW229297   6.564   7.213   6.569
 5756SOL     OW29298   4.531   8.269   6.971
 5756SOL    HW129299   4.505   8.174   6.989
 5756SOL    HW229300   4.566   8.276   6.877
 5757SOL     OW29301   7.462   4.837   0.833
 5757SOL    HW129302   7.513   4.790   0.905
 5757SOL    HW229303   7.431   4.926   0.866
 5758SOL     OW29304   4.837   6.783   6.168
 5758SOL    HW129305   4.853   6.700   6.221
 5758SOL    HW229306   4.746   6.778   6.125
 5759SOL     OW29307   8.656   7.780   5.252
 5759SOL    HW129308   8.721   7.843   5.292
 5759SOL    HW229309   8.704   7.720   5.187
 5760SOL     OW29310   2.469   1.026   6.407
 5760SOL    HW129311   2.488   0.932   6.379
 5760SOL    HW229312   2.421   1.026   6.495
 5761SOL     OW29313   9.189   1.862   6.922
 5761SOL    HW129314   9.104   1.818   6.891
 5761SOL    HW229315   9.171   1.957   6.946
 5762SOL     OW29316   3.029   1.038   6.294
 5762SOL    HW129317   3.117   1.085   6.284
 5762SOL    HW229318   3.039   0.961   6.356
 5763SOL     OW29319   3.070   4.649   1.580
 5763SOL    HW129320   2.996   4.697   1.533
 5763SOL    HW229321   3.033   4.604   1.662
 5764SOL     OW29322   7.856   6.085   0.347
 5764SOL    HW129323   7.829   6.169   0.393
 5764SOL    HW229324   7.916   6.106   0.270
 5765SOL     OW29325   8.472   1.982   1.963
 5765SOL    HW129326   8.566   1.955   1.942
 5765SOL    HW229327   8.449   1.953   2.056
 5766SOL     OW29328   0.941   0.959   1.223
 5766SOL    HW129329   0.923   0.996   1.315
 5766SOL    HW229330   0.878   1.001   1.158
 5767SOL     OW29331   2.001   7.027   0.551
 5767SOL    HW129332   1.948   7.111   0.549
 5767SOL    HW229333   1.960   6.963   0.617
 5768SOL     OW29334   4.868   4.726   1.608
 5768SOL    HW129335   4.964   4.715   1.636
 5768SOL    HW229336   4.808   4.696   1.683
 5769SOL     OW29337   8.319   1.731   6.304
 5769SOL    HW129338   8.234   1.780   6.284
 5769SOL    HW229339   8.357   1.694   6.219
 5770SOL     OW29340   8.514   6.079   6.951
 5770SOL    HW129341   8.599   6.074   7.003
 5770SOL    HW229342   8.466   6.164   6.975
 5771SOL     OW29343   1.282   8.423   5.878
 5771SOL    HW129344   1.319   8.408   5.787
 5771SOL    HW229345   1.260   8.520   5.890
 5772SOL     OW29346   8.814   2.999   0.590
 5772SOL    HW129347   8.906   3.038   0.591
 5772SOL    HW229348   8.777   3.002   0.497
 5773SOL     OW29349   6.541   6.315   6.253
 5773SOL    HW129350   6.445   6.315   6.226
 5773SOL    HW229351   6.583   6.228   6.229
 5774SOL     OW29352   5.100   2.593   1.677
 5774SOL    HW129353   5.011   2.637   1.687
 5774SOL    HW229354   5.147   2.592   1.765
 5775SOL     OW29355   7.519   0.364   1.234
 5775SOL    HW129356   7.435   0.380   1.287
 5775SOL    HW229357   7.546   0.268   1.244
 5776SOL     OW29358   8.919   0.128   6.954
 5776SOL    HW129359   8.927   0.058   6.884
 5776SOL    HW229360   8.845   0.191   6.931
 5777SOL     OW29361   2.150   3.680   5.861
 5777SOL    HW129362   2.101   3.705   5.778
 5777SOL    HW229363   2.089   3.690   5.940
 5778SOL     OW29364   7.074   7.706   0.911
 5778SOL    HW129365   7.086   7.687   1.008
 5778SOL    HW229366   7.140   7.653   0.858
 5779SOL     OW29367   0.557   2.885   0.534
 5779SOL    HW129368   0.545   2.805   0.475
 5779SOL    HW229369   0.613   2.953   0.489
 5780SOL     OW29370   6.344   1.312   6.633
 5780SOL    HW129371   6.424   1.367   6.656
 5780SOL    HW229372   6.347   1.225   6.683
 5781SOL     OW29373   5.754   0.423   5.734
 5781SOL    HW129374   5.736   0.329   5.763
 5781SOL    HW229375   5.690   0.448   5.661
 5782SOL     OW29376   0.629   5.769   6.435
 5782SOL    HW129377   0.709   5.710   6.431
 5782SOL    HW229378   0.547   5.712   6.446
 5783SOL     OW29379   4.022   0.532   6.649
 5783SOL    HW129380   3.978   0.444   6.632
 5783SOL    HW229381   4.029   0.548   6.748
 5784SOL     OW29382   7.190   1.528   1.754
 5784SOL    HW129383   7.277   1.564   1.719
 5784SOL    HW229384   7.123   1.601   1.759
 5785SOL     OW29385   4.558   0.244   6.608
 5785SOL    HW129386   4.472   0.286   6.580
 5785SOL    HW229387   4.630   0.268   6.542
 5786SOL     OW29388   3.748   8.196   1.290
 5786SOL    HW129389   3.657   8.170   1.257
 5786SOL    HW229390   3.818   8.145   1.240
 5787SOL     OW29391   6.458   2.300   6.622
 5787SOL    HW129392   6.503   2.294   6.533
 5787SOL    HW229393   6.402   2.383   6.626
 5788SOL     OW29394   2.872   2.852   1.162
 5788SOL    HW129395   2.881   2.893   1.071
 5788SOL    HW229396   2.787   2.801   1.168
 5789SOL     OW29397   6.377   5.149   5.430
 5789SOL    HW129398   6.313   5.170   5.355
 5789SOL    HW229399   6.424   5.063   5.410
 5790SOL     OW29400   1.358   8.402   5.630
 5790SOL    HW129401   1.282   8.385   5.567
 5790SOL    HW229402   1.411   8.318   5.641
 5791SOL     OW29403   9.390   0.734   1.495
 5791SOL    HW129404   9.442   0.649   1.484
 5791SOL    HW229405   9.293   0.712   1.504
 5792SOL     OW29406   4.142   5.302   6.485
 5792SOL    HW129407   4.098   5.254   6.409
 5792SOL    HW229408   4.210   5.366   6.449
 5793SOL     OW29409   0.687   3.670   0.752
 5793SOL    HW129410   0.746   3.655   0.672
 5793SOL    HW229411   0.724   3.621   0.831
 5794SOL     OW29412   4.899   6.876   5.556
 5794SOL    HW129413   4.842   6.843   5.631
 5794SOL    HW229414   4.922   6.800   5.495
 5795SOL     OW29415   7.983   3.984   1.936
 5795SOL    HW129416   7.999   3.999   1.839
 5795SOL    HW229417   8.018   3.893   1.962
 5796SOL     OW29418   3.472   5.468   1.297
 5796SOL    HW129419   3.552   5.461   1.357
 5796SOL    HW229420   3.492   5.532   1.222
 5797SOL     OW29421   6.788   3.589   0.784
 5797SOL    HW129422   6.766   3.503   0.829
 5797SOL    HW229423   6.722   3.659   0.812
 5798SOL     OW29424   3.604   3.039   6.184
 5798SOL    HW129425   3.566   2.966   6.241
 5798SOL    HW229426   3.587   3.018   6.088
 5799SOL     OW29427   7.411   6.488   1.065
 5799SOL    HW129428   7.461   6.426   1.005
 5799SOL    HW229429   7.453   6.578   1.062
 5800SOL     OW29430   1.954   5.276   0.430
 5800SOL    HW129431   1.862   5.296   0.397
 5800SOL    HW229432   1.965   5.177   0.441
 5801SOL     OW29433   5.177   3.278   0.801
 5801SOL    HW129434   5.267   3.234   0.809
 5801SOL    HW229435   5.106   3.208   0.800
 5802SOL     OW29436   4.927   8.037   6.646
 5802SOL    HW129437   4.934   8.098   6.725
 5802SOL    HW229438   4.994   7.964   6.655
 5803SOL     OW29439   1.856   0.788   5.701
 5803SOL    HW129440   1.943   0.764   5.743
 5803SOL    HW229441   1.864   0.785   5.602
 5804SOL     OW29442   2.443   7.903   4.668
 5804SOL    HW129443   2.513   7.950   4.614
 5804SOL    HW229444   2.448   7.805   4.652
 5805SOL     OW29445   3.901   2.665   1.975
 5805SOL    HW129446   3.918   2.581   2.025
 5805SOL    HW229447   3.854   2.731   2.034
 5806SOL     OW29448   5.013   3.762   6.667
 5806SOL    HW129449   5.024   3.783   6.570
 5806SOL    HW229450   5.042   3.841   6.721
 5807SOL     OW29451   9.160   2.099   6.632
 5807SOL    HW129452   9.147   2.169   6.702
 5807SOL    HW229453   9.256   2.097   6.604
 5808SOL     OW29454   5.675   6.942   6.915
 5808SOL    HW129455   5.713   7.033   6.934
 5808SOL    HW229456   5.740   6.890   6.860
 5809SOL     OW29457   7.598   3.899   6.005
 5809SOL    HW129458   7.529   3.911   5.934
 5809SOL    HW229459   7.659   3.824   5.980
 5810SOL     OW29460   0.281   3.995   0.908
 5810SOL    HW129461   0.271   3.905   0.866
 5810SOL    HW229462   0.217   4.002   0.986
 5811SOL     OW29463   2.566   6.979   6.266
 5811SOL    HW129464   2.492   7.035   6.229
 5811SOL    HW229465   2.529   6.894   6.303
 5812SOL     OW29466   1.250   0.028   6.785
 5812SOL    HW129467   1.308  -0.008   6.858
 5812SOL    HW229468   1.290   0.113   6.750
 5813SOL     OW29469   5.825   1.822   6.676
 5813SOL    HW129470   5.923   1.820   6.698
 5813SOL    HW229471   5.805   1.906   6.624
 5814SOL     OW29472   6.363   2.151   6.962
 5814SOL    HW129473   6.438   2.181   6.904
 5814SOL    HW229474   6.398   2.127   7.053
 5815SOL     OW29475   3.274   6.063   2.162
 5815SOL    HW129476   3.180   6.095   2.162
 5815SOL    HW229477   3.284   5.990   2.230
 5816SOL     OW29478   6.662   4.664   5.748
 5816SOL    HW129479   6.567   4.633   5.744
 5816SOL    HW229480   6.679   4.731   5.676
 5817SOL     OW29481   4.604   1.502   6.648
 5817SOL    HW129482   4.542   1.486   6.725
 5817SOL    HW229483   4.697   1.516   6.683
 5818SOL     OW29484   5.673   6.055   2.089
 5818SOL    HW129485   5.701   6.144   2.125
 5818SOL    HW229486   5.755   6.001   2.068
 5819SOL     OW29487   2.958   7.247   0.370
 5819SOL    HW129488   2.900   7.173   0.338
 5819SOL    HW229489   2.994   7.297   0.291
 5820SOL     OW29490   2.850   2.031   0.751
 5820SOL    HW129491   2.876   2.006   0.844
 5820SOL    HW229492   2.834   1.949   0.697
 5821SOL     OW29493   6.762   0.456   6.225
 5821SOL    HW129494   6.840   0.492   6.277
 5821SOL    HW229495   6.691   0.527   6.220
 5822SOL     OW29496   1.744   6.831   6.944
 5822SOL    HW129497   1.843   6.826   6.929
 5822SOL    HW229498   1.705   6.904   6.887
 5823SOL     OW29499   8.079   7.178   6.798
 5823SOL    HW129500   8.163   7.197   6.850
 5823SOL    HW229501   8.032   7.264   6.779
 5824SOL     OW29502   9.477   4.987   5.841
 5824SOL    HW129503   9.427   4.955   5.761
 5824SOL    HW229504   9.454   5.082   5.859
 5825SOL     OW29505   1.382   7.033   6.865
 5825SOL    HW129506   1.291   7.067   6.841
 5825SOL    HW229507   1.382   6.999   6.959
 5826SOL     OW29508   5.671   4.943   1.584
 5826SOL    HW129509   5.716   4.905   1.665
 5826SOL    HW229510   5.633   5.033   1.605
 5827SOL     OW29511   8.887   6.218   1.299
 5827SOL    HW129512   8.853   6.129   1.330
 5827SOL    HW229513   8.865   6.288   1.367
 5828SOL     OW29514   3.519   7.084   6.333
 5828SOL    HW129515   3.419   7.077   6.329
 5828SOL    HW229516   3.559   7.009   6.281
 5829SOL     OW29517   2.818   8.041   0.253
 5829SOL    HW129518   2.815   8.141   0.254
 5829SOL    HW229519   2.761   8.006   0.178
 5830SOL     OW29520   6.468   8.106   5.864
 5830SOL    HW129521   6.504   8.131   5.773
 5830SOL    HW229522   6.376   8.144   5.875
 5831SOL     OW29523   2.208   7.067   0.803
 5831SOL    HW129524   2.126   7.115   0.836
 5831SOL    HW229525   2.193   6.969   0.807
 5832SOL     OW29526   0.967   0.307   1.034
 5832SOL    HW129527   0.947   0.216   0.997
 5832SOL    HW229528   1.064   0.314   1.057
 5833SOL     OW29529   4.107   7.201   1.315
 5833SOL    HW129530   4.059   7.179   1.400
 5833SOL    HW229531   4.088   7.295   1.289
 5834SOL     OW29532   3.618   6.306   1.410
 5834SOL    HW129533   3.650   6.360   1.488
 5834SOL    HW229534   3.560   6.231   1.442
 5835SOL     OW29535   9.099   0.198   0.691
 5835SOL    HW129536   9.171   0.267   0.688
 5835SOL    HW229537   9.010   0.243   0.697
 5836SOL     OW29538   4.891   2.014   5.666
 5836SOL    HW129539   4.802   1.969   5.674
 5836SOL    HW229540   4.906   2.074   5.744
 5837SOL     OW29541   0.410   2.755   6.217
 5837SOL    HW129542   0.313   2.770   6.200
 5837SOL    HW229543   0.460   2.841   6.206
 5838SOL     OW29544   1.612  -0.034   0.610
 5838SOL    HW129545   1.580  -0.070   0.522
 5838SOL    HW229546   1.567   0.054   0.627
 5839SOL     OW29547   0.818   0.250   0.454
 5839SOL    HW129548   0.805   0.286   0.547
 5839SOL    HW229549   0.864   0.161   0.460
 5840SOL     OW29550   1.068   3.759   6.596
 5840SOL    HW129551   1.057   3.852   6.631
 5840SOL    HW229552   1.165   3.735   6.597
 5841SOL     OW29553   7.396   3.925   5.821
 5841SOL    HW129554   7.380   4.002   5.760
 5841SOL    HW229555   7.343   3.846   5.790
 5842SOL     OW29556   1.925   5.974   6.851
 5842SOL    HW129557   1.992   5.908   6.815
 5842SOL    HW229558   1.902   6.040   6.780
 5843SOL     OW29559   1.414   2.975   0.474
 5843SOL    HW129560   1.414   2.933   0.565
 5843SOL    HW229561   1.475   2.924   0.414
 5844SOL     OW29562   0.525   1.222   6.373
 5844SOL    HW129563   0.427   1.202   6.364
 5844SOL    HW229564   0.576   1.160   6.313
 5845SOL     OW29565   2.798   1.118   1.327
 5845SOL    HW129566   2.797   1.213   1.295
 5845SOL    HW229567   2.707   1.094   1.362
 5846SOL     OW29568   4.496   4.730   1.304
 5846SOL    HW129569   4.538   4.655   1.252
 5846SOL    HW229570   4.565   4.798   1.327
 5847SOL     OW29571   7.481   6.333   6.502
 5847SOL    HW129572   7.516   6.308   6.411
 5847SOL    HW229573   7.542   6.398   6.545
 5848SOL     OW29574   5.847   1.291   0.318
 5848SOL    HW129575   5.806   1.324   0.233
 5848SOL    HW229576   5.855   1.191   0.315
 5849SOL     OW29577   6.213   8.074   0.589
 5849SOL    HW129578   6.126   8.075   0.638
 5849SOL    HW229579   6.253   7.983   0.595
 5850SOL     OW29580   8.208   4.663   1.555
 5850SOL    HW129581   8.175   4.652   1.648
 5850SOL    HW229582   8.224   4.760   1.537
 5851SOL     OW29583   6.920   0.581   6.763
 5851SOL    HW129584   6.824   0.606   6.749
 5851SOL    HW229585   6.925   0.489   6.803
 5852SOL     OW29586   5.069   6.462   6.831
 5852SOL    HW129587   5.095   6.552   6.864
 5852SOL    HW229588   5.116   6.443   6.745
 5853SOL     OW29589   0.753   0.121   5.851
 5853SOL    HW129590   0.762   0.036   5.904
 5853SOL    HW229591   0.732   0.099   5.756
 5854SOL     OW29592   7.388   5.038   6.239
 5854SOL    HW129593   7.480   4.999   6.243
 5854SOL    HW229594   7.389   5.121   6.185
 5855SOL     OW29595   0.337   7.957   1.539
 5855SOL    HW129596   0.430   7.975   1.571
 5855SOL    HW229597   0.285   7.911   1.611
 5856SOL     OW29598   3.729   4.450   6.885
 5856SOL    HW129599   3.717   4.496   6.973
 5856SOL    HW229600   3.641   4.419   6.850
 5857SOL     OW29601   6.859   0.314   5.611
 5857SOL    HW129602   6.785   0.316   5.544
 5857SOL    HW229603   6.883   0.219   5.631
 5858SOL     OW29604   0.495   4.227   5.417
 5858SOL    HW129605   0.442   4.147   5.391
 5858SOL    HW229606   0.593   4.209   5.404
 5859SOL     OW29607   5.021   4.630   6.495
 5859SOL    HW129608   4.958   4.693   6.538
 5859SOL    HW229609   5.056   4.670   6.410
 5860SOL     OW29610   3.298   6.274   6.838
 5860SOL    HW129611   3.347   6.263   6.752
 5860SOL    HW229612   3.363   6.291   6.912
 5861SOL     OW29613   2.858   8.087   1.050
 5861SOL    HW129614   2.869   7.987   1.044
 5861SOL    HW229615   2.927   8.132   0.994
 5862SOL     OW29616   4.921   5.028   6.287
 5862SOL    HW129617   4.871   5.068   6.364
 5862SOL    HW229618   4.965   4.943   6.316
 5863SOL     OW29619   1.383   0.338   4.948
 5863SOL    HW129620   1.324   0.329   4.867
 5863SOL    HW229621   1.409   0.247   4.980
 5864SOL     OW29622   8.125   5.940   5.612
 5864SOL    HW129623   8.121   6.025   5.666
 5864SOL    HW229624   8.035   5.921   5.573
 5865SOL     OW29625   6.826   0.790   1.528
 5865SOL    HW129626   6.780   0.721   1.584
 5865SOL    HW229627   6.915   0.811   1.568
 5866SOL     OW29628   3.676   2.556   0.969
 5866SOL    HW129629   3.609   2.532   1.039
 5866SOL    HW229630   3.694   2.654   0.972
 5867SOL     OW29631   4.361   7.395   6.342
 5867SOL    HW129632   4.333   7.457   6.415
 5867SOL    HW229633   4.460   7.398   6.332
 5868SOL     OW29634   3.331   5.488   6.773
 5868SOL    HW129635   3.430   5.490   6.769
 5868SOL    HW229636   3.300   5.397   6.801
 5869SOL     OW29637   3.233   7.494   1.061
 5869SOL    HW129638   3.193   7.556   0.994
 5869SOL    HW229639   3.188   7.405   1.057
 5870SOL     OW29640   0.516   7.162   6.220
 5870SOL    HW129641   0.492   7.112   6.137
 5870SOL    HW229642   0.603   7.127   6.255
 5871SOL     OW29643   4.329   0.132   4.851
 5871SOL    HW129644   4.410   0.103   4.799
 5871SOL    HW229645   4.248   0.128   4.792
 5872SOL     OW29646   1.530   3.099   6.430
 5872SOL    HW129647   1.450   3.152   6.401
 5872SOL    HW229648   1.555   3.034   6.359
 5873SOL     OW29649   1.290   5.826   5.679
 5873SOL    HW129650   1.194   5.804   5.696
 5873SOL    HW229651   1.320   5.895   5.745
 5874SOL     OW29652   3.724   7.564   0.324
 5874SOL    HW129653   3.814   7.523   0.309
 5874SOL    HW229654   3.670   7.505   0.385
 5875SOL     OW29655   4.666   1.778   6.298
 5875SOL    HW129656   4.760   1.802   6.324
 5875SOL    HW229657   4.624   1.855   6.250
 5876SOL     OW29658   3.782   2.697   6.618
 5876SOL    HW129659   3.825   2.757   6.550
 5876SOL    HW229660   3.778   2.744   6.706
 5877SOL     OW29661   3.520   4.331   5.860
 5877SOL    HW129662   3.480   4.317   5.950
 5877SOL    HW229663   3.457   4.384   5.803
 5878SOL     OW29664   7.379   7.554   5.185
 5878SOL    HW129665   7.361   7.649   5.212
 5878SOL    HW229666   7.442   7.553   5.107
 5879SOL     OW29667   5.572   4.057   6.889
 5879SOL    HW129668   5.632   3.984   6.858
 5879SOL    HW229669   5.614   4.146   6.869
 5880SOL     OW29670   8.722   0.737   6.209
 5880SOL    HW129671   8.626   0.758   6.231
 5880SOL    HW229672   8.755   0.802   6.140
 5881SOL     OW29673   3.722   0.074   1.529
 5881SOL    HW129674   3.702  -0.024   1.522
 5881SOL    HW229675   3.642   0.127   1.501
 5882SOL     OW29676   8.270   4.297   1.173
 5882SOL    HW129677   8.281   4.301   1.074
 5882SOL    HW229678   8.344   4.242   1.213
 5883SOL     OW29679   4.365   1.822   1.207
 5883SOL    HW129680   4.374   1.741   1.264
 5883SOL    HW229681   4.270   1.854   1.209
 5884SOL     OW29682   3.880   0.739   6.521
 5884SOL    HW129683   3.929   0.654   6.543
 5884SOL    HW229684   3.788   0.735   6.560
 5885SOL     OW29685   2.541   8.119   6.331
 5885SOL    HW129686   2.608   8.141   6.402
 5885SOL    HW229687   2.586   8.123   6.241
 5886SOL     OW29688   4.521   8.062   1.399
 5886SOL    HW129689   4.448   8.053   1.331
 5886SOL    HW229690   4.515   7.987   1.464
 5887SOL     OW29691   2.861   3.646   6.517
 5887SOL    HW129692   2.802   3.720   6.486
 5887SOL    HW229693   2.954   3.660   6.483
 5888SOL     OW29694   4.030   2.234   5.841
 5888SOL    HW129695   3.933   2.212   5.837
 5888SOL    HW229696   4.076   2.201   5.759
 5889SOL     OW29697   5.299   4.640   1.554
 5889SOL    HW129698   5.317   4.733   1.522
 5889SOL    HW229699   5.234   4.643   1.630
 5890SOL     OW29700   4.242   7.438   1.538
 5890SOL    HW129701   4.315   7.456   1.603
 5890SOL    HW229702   4.166   7.392   1.584
 5891SOL     OW29703   6.796   1.393   1.567
 5891SOL    HW129704   6.711   1.341   1.557
 5891SOL    HW229705   6.816   1.404   1.664
 5892SOL     OW29706   1.383   0.786   0.400
 5892SOL    HW129707   1.390   0.687   0.399
 5892SOL    HW229708   1.409   0.823   0.311
 5893SOL     OW29709   8.148   3.064   0.480
 5893SOL    HW129710   8.194   2.998   0.539
 5893SOL    HW229711   8.050   3.062   0.497
 5894SOL     OW29712   6.385   6.134   0.629
 5894SOL    HW129713   6.411   6.088   0.544
 5894SOL    HW229714   6.464   6.181   0.667
 5895SOL     OW29715   3.149   1.061   2.288
 5895SOL    HW129716   3.070   1.112   2.255
 5895SOL    HW229717   3.192   1.013   2.211
 5896SOL     OW29718   0.186   7.322   5.110
 5896SOL    HW129719   0.107   7.379   5.088
 5896SOL    HW229720   0.236   7.300   5.026
 5897SOL     OW29721   2.369   7.815   6.033
 5897SOL    HW129722   2.465   7.829   6.055
 5897SOL    HW229723   2.322   7.903   6.029
 5898SOL     OW29724   7.714   0.180   0.855
 5898SOL    HW129725   7.793   0.202   0.913
 5898SOL    HW229726   7.690   0.260   0.800
 5899SOL     OW29727   8.007   0.106   0.326
 5899SOL    HW129728   7.927   0.068   0.280
 5899SOL    HW229729   8.079   0.124   0.258
 5900SOL     OW29730   6.206   5.447   1.695
 5900SOL    HW129731   6.195   5.387   1.774
 5900SOL    HW229732   6.237   5.538   1.725
 5901SOL     OW29733   1.733   0.186   2.160
 5901SOL    HW129734   1.643   0.230   2.156
 5901SOL    HW229735   1.761   0.160   2.068
 5902SOL     OW29736   0.752   6.729   0.820
 5902SOL    HW129737   0.826   6.771   0.871
 5902SOL    HW229738   0.760   6.629   0.827
 5903SOL     OW29739   0.500   2.357   6.079
 5903SOL    HW129740   0.471   2.431   6.019
 5903SOL    HW229741   0.442   2.276   6.064
 5904SOL     OW29742   2.645   0.670   0.633
 5904SOL    HW129743   2.573   0.601   0.635
 5904SOL    HW229744   2.731   0.628   0.606
 5905SOL     OW29745   0.821   6.372   5.643
 5905SOL    HW129746   0.900   6.433   5.650
 5905SOL    HW229747   0.852   6.279   5.622
 5906SOL     OW29748   6.116   7.607   0.898
 5906SOL    HW129749   6.168   7.652   0.969
 5906SOL    HW229750   6.046   7.670   0.862
 5907SOL     OW29751   3.455   0.676   1.107
 5907SOL    HW129752   3.472   0.766   1.149
 5907SOL    HW229753   3.357   0.658   1.107
 5908SOL     OW29754   9.382   3.999   6.241
 5908SOL    HW129755   9.471   3.995   6.194
 5908SOL    HW229756   9.333   3.913   6.225
 5909SOL     OW29757   1.985   3.192   6.750
 5909SOL    HW129758   1.963   3.243   6.833
 5909SOL    HW229759   2.085   3.181   6.744
 5910SOL     OW29760   8.117   0.022   6.581
 5910SOL    HW129761   8.062  -0.062   6.588
 5910SOL    HW229762   8.060   0.096   6.545
 5911SOL     OW29763   6.073   2.753   0.382
 5911SOL    HW129764   6.172   2.740   0.378
 5911SOL    HW229765   6.053   2.847   0.413
 5912SOL     OW29766   6.887   8.313   1.153
 5912SOL    HW129767   6.804   8.299   1.098
 5912SOL    HW229768   6.966   8.275   1.105
 5913SOL     OW29769   6.609   7.370   5.280
 5913SOL    HW129770   6.663   7.304   5.228
 5913SOL    HW229771   6.574   7.326   5.362
 5914SOL     OW29772   5.312   5.241   6.362
 5914SOL    HW129773   5.222   5.232   6.319
 5914SOL    HW229774   5.303   5.227   6.460
 5915SOL     OW29775   4.649   4.306   6.514
 5915SOL    HW129776   4.571   4.364   6.487
 5915SOL    HW229777   4.708   4.357   6.576
 5916SOL     OW29778   2.788   2.488   6.735
 5916SOL    HW129779   2.805   2.538   6.820
 5916SOL    HW229780   2.874   2.448   6.703
 5917SOL     OW29781   5.602   6.346   6.922
 5917SOL    HW129782   5.538   6.418   6.951
 5917SOL    HW229783   5.684   6.349   6.979
 5918SOL     OW29784   0.208   0.812   5.663
 5918SOL    HW129785   0.188   0.718   5.635
 5918SOL    HW229786   0.262   0.811   5.747
 5919SOL     OW29787   2.562   1.545   1.349
 5919SOL    HW129788   2.507   1.614   1.302
 5919SOL    HW229789   2.547   1.552   1.448
 5920SOL     OW29790   8.849   3.271   1.020
 5920SOL    HW129791   8.789   3.251   1.097
 5920SOL    HW229792   8.905   3.191   0.999
 5921SOL     OW29793   6.383   1.466   6.971
 5921SOL    HW129794   6.444   1.545   6.972
 5921SOL    HW229795   6.289   1.497   6.955
 5922SOL     OW29796   8.128   7.137   1.639
 5922SOL    HW129797   8.164   7.153   1.731
 5922SOL    HW229798   8.162   7.208   1.577
 5923SOL     OW29799   2.578   5.790   0.316
 5923SOL    HW129800   2.620   5.788   0.407
 5923SOL    HW229801   2.637   5.842   0.254
 5924SOL     OW29802   6.392   5.580   1.035
 5924SOL    HW129803   6.441   5.589   1.122
 5924SOL    HW229804   6.449   5.532   0.969
 5925SOL     OW29805   2.097   0.357   5.888
 5925SOL    HW129806   2.053   0.446   5.893
 5925SOL    HW229807   2.188   0.366   5.847
 5926SOL     OW29808   8.419   1.736   1.599
 5926SOL    HW129809   8.491   1.804   1.584
 5926SOL    HW229810   8.460   1.652   1.636
 5927SOL     OW29811   3.307   1.193   6.697
 5927SOL    HW129812   3.242   1.120   6.717
 5927SOL    HW229813   3.341   1.232   6.782
 5928SOL     OW29814   5.947   4.420   0.412
 5928SOL    HW129815   5.957   4.339   0.355
 5928SOL    HW229816   5.917   4.394   0.503
 5929SOL     OW29817   7.181   8.300   5.966
 5929SOL    HW129818   7.207   8.357   5.888
 5929SOL    HW229819   7.093   8.256   5.947
 5930SOL     OW29820   4.455   6.222   1.144
 5930SOL    HW129821   4.428   6.290   1.076
 5930SOL    HW229822   4.386   6.218   1.216
 5931SOL     OW29823   5.186   8.017   6.135
 5931SOL    HW129824   5.248   7.944   6.106
 5931SOL    HW229825   5.239   8.093   6.172
 5932SOL     OW29826   7.424   6.936   5.968
 5932SOL    HW129827   7.463   6.966   6.055
 5932SOL    HW229828   7.487   6.872   5.923
 5933SOL     OW29829   1.133   3.369   6.490
 5933SOL    HW129830   1.195   3.396   6.564
 5933SOL    HW229831   1.067   3.302   6.524
 5934SOL     OW29832   7.854   7.333   6.042
 5934SOL    HW129833   7.818   7.266   6.106
 5934SOL    HW229834   7.901   7.406   6.093
 5935SOL     OW29835   4.018   2.077   2.335
 5935SOL    HW129836   4.041   2.054   2.430
 5935SOL    HW229837   4.075   2.154   2.305
 5936SOL     OW29838   3.211   3.122   1.331
 5936SOL    HW129839   3.267   3.049   1.369
 5936SOL    HW229840   3.114   3.103   1.349
 5937SOL     OW29841   4.874   5.863   1.003
 5937SOL    HW129842   4.866   5.963   1.006
 5937SOL    HW229843   4.828   5.824   1.083
 5938SOL     OW29844   7.850   1.191   6.567
 5938SOL    HW129845   7.927   1.165   6.508
 5938SOL    HW229846   7.792   1.112   6.583
 5939SOL     OW29847   4.097   3.096   5.430
 5939SOL    HW129848   4.071   3.076   5.524
 5939SOL    HW229849   4.018   3.084   5.370
 5940SOL     OW29850   7.619   7.329   1.390
 5940SOL    HW129851   7.683   7.388   1.340
 5940SOL    HW229852   7.668   7.278   1.461
 5941SOL     OW29853   0.986   4.728   1.444
 5941SOL    HW129854   1.045   4.675   1.505
 5941SOL    HW229855   0.900   4.748   1.490
 5942SOL     OW29856   1.541   4.239   0.682
 5942SOL    HW129857   1.443   4.249   0.696
 5942SOL    HW229858   1.558   4.213   0.587
 5943SOL     OW29859   8.120   2.297   6.387
 5943SOL    HW129860   8.157   2.363   6.453
 5943SOL    HW229861   8.168   2.210   6.396
 5944SOL     OW29862   6.323   4.635   1.278
 5944SOL    HW129863   6.229   4.617   1.309
 5944SOL    HW229864   6.321   4.687   1.193
 5945SOL     OW29865   8.830   4.452   6.728
 5945SOL    HW129866   8.734   4.471   6.749
 5945SOL    HW229867   8.866   4.523   6.667
 5946SOL     OW29868   9.381   3.399   5.686
 5946SOL    HW129869   9.439   3.376   5.608
 5946SOL    HW229870   9.318   3.473   5.660
 5947SOL     OW29871   7.863   4.951   6.522
 5947SOL    HW129872   7.850   5.030   6.462
 5947SOL    HW229873   7.884   4.870   6.468
 5948SOL     OW29874   2.217   8.357   5.474
 5948SOL    HW129875   2.164   8.285   5.430
 5948SOL    HW229876   2.269   8.407   5.404
 5949SOL     OW29877   2.571   4.292   5.992
 5949SOL    HW129878   2.597   4.267   5.898
 5949SOL    HW229879   2.625   4.238   6.056
 5950SOL     OW29880   0.530   0.993   6.942
 5950SOL    HW129881   0.589   0.935   6.885
 5950SOL    HW229882   0.514   1.080   6.895
 5951SOL     OW29883   6.881   2.275   0.941
 5951SOL    HW129884   6.939   2.241   0.867
 5951SOL    HW229885   6.853   2.370   0.920
 5952SOL     OW29886   7.143   1.687   1.073
 5952SOL    HW129887   7.183   1.773   1.103
 5952SOL    HW229888   7.060   1.705   1.020
 5953SOL     OW29889   2.268   2.147   6.057
 5953SOL    HW129890   2.258   2.211   5.981
 5953SOL    HW229891   2.212   2.179   6.134
 5954SOL     OW29892   8.270   4.932   1.514
 5954SOL    HW129893   8.228   5.008   1.564
 5954SOL    HW229894   8.334   4.968   1.446
 5955SOL     OW29895   4.057   0.478   1.221
 5955SOL    HW129896   4.049   0.496   1.319
 5955SOL    HW229897   3.974   0.509   1.175
 5956SOL     OW29898   0.185   2.381   6.518
 5956SOL    HW129899   0.098   2.371   6.468
 5956SOL    HW229900   0.188   2.314   6.593
 5957SOL     OW29901   4.720   6.862   1.572
 5957SOL    HW129902   4.698   6.855   1.669
 5957SOL    HW229903   4.765   6.777   1.542
 5958SOL     OW29904   4.307   3.353   0.784
 5958SOL    HW129905   4.389   3.408   0.800
 5958SOL    HW229906   4.295   3.339   0.686
 5959SOL     OW29907   2.208   3.098   6.396
 5959SOL    HW129908   2.183   3.187   6.358
 5959SOL    HW229909   2.126   3.041   6.406
 5960SOL     OW29910   2.463   5.390   0.484
 5960SOL    HW129911   2.388   5.362   0.425
 5960SOL    HW229912   2.494   5.312   0.538
 5961SOL     OW29913   2.716   3.484   6.331
 5961SOL    HW129914   2.777   3.500   6.408
 5961SOL    HW229915   2.713   3.565   6.272
 5962SOL     OW29916   1.790   0.524   6.428
 5962SOL    HW129917   1.733   0.586   6.374
 5962SOL    HW229918   1.876   0.570   6.451
 5963SOL     OW29919   1.587   4.118   1.128
 5963SOL    HW129920   1.576   4.122   1.227
 5963SOL    HW229921   1.504   4.081   1.086
 5964SOL     OW29922   1.077   2.028   6.650
 5964SOL    HW129923   1.072   1.933   6.681
 5964SOL    HW229924   1.007   2.044   6.580
 5965SOL     OW29925   4.204   5.415   5.706
 5965SOL    HW129926   4.224   5.435   5.610
 5965SOL    HW229927   4.213   5.317   5.723
 5966SOL     OW29928   5.180   6.498   6.136
 5966SOL    HW129929   5.087   6.463   6.126
 5966SOL    HW229930   5.182   6.568   6.207
 5967SOL     OW29931   1.114   6.562   0.862
 5967SOL    HW129932   1.212   6.546   0.850
 5967SOL    HW229933   1.086   6.536   0.955
 5968SOL     OW29934   1.603   2.883   0.245
 5968SOL    HW129935   1.568   2.798   0.284
 5968SOL    HW229936   1.678   2.862   0.182
 5969SOL     OW29937   1.694   3.793   1.222
 5969SOL    HW129938   1.623   3.838   1.276
 5969SOL    HW229939   1.721   3.707   1.266
 5970SOL     OW29940   8.825   6.329   5.595
 5970SOL    HW129941   8.805   6.235   5.566
 5970SOL    HW229942   8.913   6.357   5.556
 5971SOL     OW29943   2.288   1.845   6.961
 5971SOL    HW129944   2.368   1.830   7.019
 5971SOL    HW229945   2.229   1.914   7.003
 5972SOL     OW29946   3.239   3.721   1.918
 5972SOL    HW129947   3.243   3.819   1.897
 5972SOL    HW229948   3.157   3.682   1.876
 5973SOL     OW29949   6.145   1.460   0.663
 5973SOL    HW129950   6.121   1.460   0.566
 5973SOL    HW229951   6.067   1.492   0.717
 5974SOL     OW29952   4.587   7.100   1.540
 5974SOL    HW129953   4.613   7.003   1.541
 5974SOL    HW229954   4.562   7.129   1.632
 5975SOL     OW29955   6.714   1.479   2.443
 5975SOL    HW129956   6.630   1.534   2.451
 5975SOL    HW229957   6.790   1.538   2.415
 5976SOL     OW29958   3.052   2.004   6.509
 5976SOL    HW129959   3.000   1.924   6.479
 5976SOL    HW229960   3.029   2.026   6.604
 5977SOL     OW29961   5.280   1.728   1.166
 5977SOL    HW129962   5.328   1.641   1.180
 5977SOL    HW229963   5.198   1.712   1.110
 5978SOL     OW29964   8.835   8.329   6.782
 5978SOL    HW129965   8.745   8.302   6.746
 5978SOL    HW229966   8.857   8.272   6.861
 5979SOL     OW29967   4.370   0.810   5.584
 5979SOL    HW129968   4.451   0.807   5.525
 5979SOL    HW229969   4.336   0.717   5.597
 5980SOL     OW29970   6.284   6.650   5.627
 5980SOL    HW129971   6.335   6.565   5.644
 5980SOL    HW229972   6.190   6.627   5.599
 5981SOL     OW29973   1.807   5.464   6.315
 5981SOL    HW129974   1.888   5.475   6.257
 5981SOL    HW229975   1.778   5.368   6.315
 5982SOL     OW29976   3.182   1.898   0.347
 5982SOL    HW129977   3.280   1.918   0.345
 5982SOL    HW229978   3.169   1.799   0.358
 5983SOL     OW29979   5.893   4.991   6.525
 5983SOL    HW129980   5.968   4.929   6.546
 5983SOL    HW229981   5.835   5.001   6.606
 5984SOL     OW29982   3.954   8.386   1.462
 5984SOL    HW129983   3.914   8.353   1.376
 5984SOL    HW229984   3.916   8.476   1.484
 5985SOL     OW29985   2.600   7.741   1.024
 5985SOL    HW129986   2.648   7.657   1.051
 5985SOL    HW229987   2.502   7.731   1.042
 5986SOL     OW29988   9.500   4.103   6.881
 5986SOL    HW129989   9.553   4.177   6.922
 5986SOL    HW229990   9.527   4.015   6.921
 5987SOL     OW29991   1.848   3.671   6.510
 5987SOL    HW129992   1.933   3.718   6.533
 5987SOL    HW229993   1.867   3.592   6.452
 5988SOL     OW29994   7.538   7.623   6.518
 5988SOL    HW129995   7.536   7.702   6.456
 5988SOL    HW229996   7.556   7.540   6.465
 5989SOL     OW29997   4.645   7.614   0.607
 5989SOL    HW129998   4.732   7.626   0.655
 5989SOL    HW229999   4.655   7.641   0.512
 5990SOL     OW30000   7.277   3.699   6.088
 5990SOL    HW130001   7.271   3.762   6.010
 5990SOL    HW230002   7.361   3.645   6.080
 5991SOL     OW30003   1.781   0.508   5.767
 5991SOL    HW130004   1.798   0.599   5.804
 5991SOL    HW230005   1.792   0.440   5.839
 5992SOL     OW30006   8.151   0.979   5.513
 5992SOL    HW130007   8.122   0.911   5.446
 5992SOL    HW230008   8.251   0.983   5.515
 5993SOL     OW30009   3.135   5.715   5.646
 5993SOL    HW130010   3.065   5.776   5.607
 5993SOL    HW230011   3.170   5.756   5.730
 5994SOL     OW30012   2.891   0.488   0.619
 5994SOL    HW130013   2.916   0.463   0.713
 5994SOL    HW230014   2.869   0.405   0.568
 5995SOL     OW30015   2.805   7.109   5.570
 5995SOL    HW130016   2.797   7.132   5.667
 5995SOL    HW230017   2.877   7.041   5.558
 5996SOL     OW30018   8.633   4.418   1.500
 5996SOL    HW130019   8.535   4.435   1.489
 5996SOL    HW230020   8.667   4.466   1.581
 5997SOL     OW30021   0.156   6.267   6.443
 5997SOL    HW130022   0.057   6.272   6.449
 5997SOL    HW230023   0.183   6.246   6.349
 5998SOL     OW30024   0.967   1.199   6.437
 5998SOL    HW130025   1.030   1.253   6.493
 5998SOL    HW230026   0.961   1.240   6.346
 5999SOL     OW30027   1.138   8.324   5.464
 5999SOL    HW130028   1.130   8.231   5.499
 5999SOL    HW230029   1.071   8.382   5.510
 6000SOL     OW30030   2.990   4.046   6.738
 6000SOL    HW130031   2.924   4.000   6.797
 6000SOL    HW230032   2.952   4.057   6.646
 6001SOL     OW30033   4.169   4.224   0.920
 6001SOL    HW130034   4.177   4.126   0.901
 6001SOL    HW230035   4.227   4.247   0.998
 6002SOL     OW30036   0.521   0.284   6.292
 6002SOL    HW130037   0.492   0.232   6.373
 6002SOL    HW230038   0.619   0.305   6.300
 6003SOL     OW30039   9.318   3.759   1.452
 6003SOL    HW130040   9.357   3.700   1.522
 6003SOL    HW230041   9.310   3.852   1.488
 6004SOL     OW30042   3.278   5.401   4.900
 6004SOL    HW130043   3.315   5.314   4.932
 6004SOL    HW230044   3.186   5.414   4.938
 6005SOL     OW30045   7.824   4.525   0.631
 6005SOL    HW130046   7.873   4.596   0.580
 6005SOL    HW230047   7.868   4.512   0.720
 6006SOL     OW30048   6.661   3.617   2.062
 6006SOL    HW130049   6.564   3.636   2.044
 6006SOL    HW230050   6.674   3.598   2.159
 6007SOL     OW30051   4.448   7.836   6.227
 6007SOL    HW130052   4.469   7.820   6.131
 6007SOL    HW230053   4.533   7.836   6.280
 6008SOL     OW30054   0.149   4.235   6.538
 6008SOL    HW130055   0.070   4.175   6.528
 6008SOL    HW230056   0.211   4.222   6.461
 6009SOL     OW30057   0.155   7.044   0.535
 6009SOL    HW130058   0.208   7.007   0.611
 6009SOL    HW230059   0.197   7.129   0.503
 6010SOL     OW30060   2.612   6.896   0.486
 6010SOL    HW130061   2.567   6.838   0.418
 6010SOL    HW230062   2.614   6.848   0.574
 6011SOL     OW30063   1.259   7.207   1.444
 6011SOL    HW130064   1.249   7.282   1.509
 6011SOL    HW230065   1.342   7.155   1.466
 6012SOL     OW30066   5.468   2.635   1.184
 6012SOL    HW130067   5.496   2.557   1.240
 6012SOL    HW230068   5.528   2.713   1.202
 6013SOL     OW30069   4.180   1.506   0.265
 6013SOL    HW130070   4.273   1.473   0.252
 6013SOL    HW230071   4.145   1.541   0.178
 6014SOL     OW30072   7.165   3.010   6.699
 6014SOL    HW130073   7.178   3.103   6.666
 6014SOL    HW230074   7.086   2.969   6.654
 6015SOL     OW30075   7.862   2.937   1.568
 6015SOL    HW130076   7.783   2.945   1.628
 6015SOL    HW230077   7.946   2.943   1.622
 6016SOL     OW30078   4.211   6.144   1.581
 6016SOL    HW130079   4.295   6.113   1.625
 6016SOL    HW230080   4.134   6.088   1.612
 6017SOL     OW30081   3.593   8.286   0.342
 6017SOL    HW130082   3.602   8.198   0.295
 6017SOL    HW230083   3.645   8.356   0.292
 6018SOL     OW30084   4.332   3.420   6.385
 6018SOL    HW130085   4.261   3.427   6.315
 6018SOL    HW230086   4.295   3.447   6.473
 6019SOL     OW30087   8.545   4.687   6.262
 6019SOL    HW130088   8.545   4.651   6.355
 6019SOL    HW230089   8.634   4.727   6.241
 6020SOL     OW30090   7.900   8.067   2.090
 6020SOL    HW130091   7.897   7.978   2.136
 6020SOL    HW230092   7.866   8.137   2.152
 6021SOL     OW30093   2.395   7.645   5.796
 6021SOL    HW130094   2.389   7.731   5.847
 6021SOL    HW230095   2.328   7.580   5.832
 6022SOL     OW30096   1.513   5.527   6.174
 6022SOL    HW130097   1.569   5.510   6.255
 6022SOL    HW230098   1.503   5.442   6.122
 6023SOL     OW30099   5.055   5.589   0.471
 6023SOL    HW130100   4.967   5.636   0.467
 6023SOL    HW230101   5.062   5.540   0.558
 6024SOL     OW30102   8.647   5.025   5.829
 6024SOL    HW130103   8.617   5.103   5.775
 6024SOL    HW230104   8.580   5.006   5.900
 6025SOL     OW30105   7.594   5.824   5.825
 6025SOL    HW130106   7.515   5.885   5.813
 6025SOL    HW230107   7.582   5.770   5.908
 6026SOL     OW30108   5.480   0.412   6.430
 6026SOL    HW130109   5.511   0.320   6.405
 6026SOL    HW230110   5.460   0.464   6.346
 6027SOL     OW30111   4.149   8.396   5.733
 6027SOL    HW130112   4.225   8.348   5.688
 6027SOL    HW230113   4.158   8.495   5.716
 6028SOL     OW30114   0.936   7.315   0.748
 6028SOL    HW130115   0.849   7.340   0.705
 6028SOL    HW230116   0.922   7.235   0.807
 6029SOL     OW30117   3.348   2.806   0.408
 6029SOL    HW130118   3.326   2.894   0.451
 6029SOL    HW230119   3.328   2.811   0.310
 6030SOL     OW30120   1.250   1.712   1.438
 6030SOL    HW130121   1.248   1.629   1.383
 6030SOL    HW230122   1.333   1.764   1.419
 6031SOL     OW30123   4.203   7.060   6.557
 6031SOL    HW130124   4.278   6.996   6.574
 6031SOL    HW230125   4.132   7.016   6.502
 6032SOL     OW30126   1.661   4.677   5.592
 6032SOL    HW130127   1.654   4.742   5.517
 6032SOL    HW230128   1.607   4.595   5.570
 6033SOL     OW30129   3.301   0.465   1.529
 6033SOL    HW130130   3.398   0.442   1.527
 6033SOL    HW230131   3.262   0.437   1.616
 6034SOL     OW30132   6.073   0.489   1.302
 6034SOL    HW130133   6.065   0.540   1.216
 6034SOL    HW230134   6.157   0.516   1.349
 6035SOL     OW30135   8.596   7.491   4.558
 6035SOL    HW130136   8.593   7.399   4.595
 6035SOL    HW230137   8.642   7.490   4.469
 6036SOL     OW30138   6.982   5.112   1.224
 6036SOL    HW130139   7.068   5.062   1.227
 6036SOL    HW230140   6.993   5.199   1.273
 6037SOL     OW30141   8.451   5.785   6.024
 6037SOL    HW130142   8.547   5.755   6.030
 6037SOL    HW230143   8.431   5.811   5.929
 6038SOL     OW30144   9.308   7.221   6.677
 6038SOL    HW130145   9.290   7.177   6.589
 6038SOL    HW230146   9.334   7.316   6.663
 6039SOL     OW30147   6.779   1.458   6.042
 6039SOL    HW130148   6.756   1.495   5.951
 6039SOL    HW230149   6.779   1.358   6.038
 6040SOL     OW30150   9.212   3.654   0.998
 6040SOL    HW130151   9.263   3.700   1.071
 6040SOL    HW230152   9.123   3.624   1.034
 6041SOL     OW30153   9.458   1.829   0.250
 6041SOL    HW130154   9.361   1.853   0.244
 6041SOL    HW230155   9.467   1.730   0.244
 6042SOL     OW30156   5.309   0.737   6.448
 6042SOL    HW130157   5.305   0.799   6.526
 6042SOL    HW230158   5.360   0.781   6.374
 6043SOL     OW30159   0.708   6.494   1.053
 6043SOL    HW130160   0.653   6.417   1.086
 6043SOL    HW230161   0.708   6.567   1.121
 6044SOL     OW30162   1.878   4.585   1.186
 6044SOL    HW130163   1.862   4.624   1.095
 6044SOL    HW230164   1.827   4.637   1.254
 6045SOL     OW30165   1.341   3.278   6.348
 6045SOL    HW130166   1.266   3.331   6.388
 6045SOL    HW230167   1.347   3.297   6.250
 6046SOL     OW30168   5.446   7.147   6.098
 6046SOL    HW130169   5.409   7.086   6.028
 6046SOL    HW230170   5.545   7.152   6.088
 6047SOL     OW30171   9.081   6.350   6.191
 6047SOL    HW130172   9.169   6.388   6.218
 6047SOL    HW230173   9.016   6.359   6.266
 6048SOL     OW30174   4.848   2.628   0.730
 6048SOL    HW130175   4.910   2.706   0.722
 6048SOL    HW230176   4.784   2.643   0.805
 6049SOL     OW30177   5.979   6.331   5.168
 6049SOL    HW130178   5.914   6.260   5.143
 6049SOL    HW230179   5.934   6.399   5.226
 6050SOL     OW30180   6.396   4.247   6.695
 6050SOL    HW130181   6.355   4.210   6.779
 6050SOL    HW230182   6.323   4.271   6.631
 6051SOL     OW30183   3.356   1.163   1.402
 6051SOL    HW130184   3.402   1.237   1.452
 6051SOL    HW230185   3.425   1.107   1.356
 6052SOL     OW30186   2.028   8.241   0.513
 6052SOL    HW130187   1.950   8.221   0.454
 6052SOL    HW230188   2.090   8.163   0.514
 6053SOL     OW30189   7.936   1.310   0.428
 6053SOL    HW130190   7.918   1.404   0.397
 6053SOL    HW230191   7.876   1.247   0.380
 6054SOL     OW30192   1.981   5.567   0.319
 6054SOL    HW130193   1.945   5.659   0.337
 6054SOL    HW230194   2.029   5.533   0.400
 6055SOL     OW30195   8.783   8.205   6.253
 6055SOL    HW130196   8.724   8.178   6.329
 6055SOL    HW230197   8.750   8.162   6.169
 6056SOL     OW30198   2.210   1.149   1.164
 6056SOL    HW130199   2.142   1.103   1.221
 6056SOL    HW230200   2.265   1.209   1.221
 6057SOL     OW30201   3.006   0.718   0.512
 6057SOL    HW130202   3.003   0.620   0.530
 6057SOL    HW230203   3.091   0.756   0.549
 6058SOL     OW30204   2.563   7.287   6.414
 6058SOL    HW130205   2.485   7.325   6.364
 6058SOL    HW230206   2.532   7.221   6.482
 6059SOL     OW30207   9.049   1.123   0.392
 6059SOL    HW130208   8.967   1.125   0.334
 6059SOL    HW230209   9.086   1.030   0.392
 6060SOL     OW30210   7.179   7.311   1.519
 6060SOL    HW130211   7.202   7.217   1.544
 6060SOL    HW230212   7.119   7.350   1.590
 6061SOL     OW30213   3.696   3.999   6.877
 6061SOL    HW130214   3.748   4.071   6.832
 6061SOL    HW230215   3.601   4.030   6.890
 6062SOL     OW30216   5.984   0.839   5.629
 6062SOL    HW130217   5.886   0.841   5.608
 6062SOL    HW230218   6.031   0.906   5.572
 6063SOL     OW30219   3.642   0.373   6.801
 6063SOL    HW130220   3.565   0.347   6.858
 6063SOL    HW230221   3.616   0.368   6.705
 6064SOL     OW30222   9.012   7.349   6.047
 6064SOL    HW130223   8.945   7.361   6.120
 6064SOL    HW230224   9.094   7.403   6.066
 6065SOL     OW30225   1.523   4.689   6.045
 6065SOL    HW130226   1.424   4.700   6.050
 6065SOL    HW230227   1.568   4.760   6.099
 6066SOL     OW30228   2.167   4.734   1.500
 6066SOL    HW130229   2.148   4.799   1.427
 6066SOL    HW230230   2.159   4.779   1.589
 6067SOL     OW30231   2.547   3.147   0.508
 6067SOL    HW130232   2.472   3.104   0.558
 6067SOL    HW230233   2.632   3.135   0.559
 6068SOL     OW30234   7.266   8.011   1.029
 6068SOL    HW130235   7.344   7.992   0.969
 6068SOL    HW230236   7.235   7.925   1.070
 6069SOL     OW30237   6.852   3.361   1.374
 6069SOL    HW130238   6.765   3.389   1.332
 6069SOL    HW230239   6.894   3.439   1.420
 6070SOL     OW30240   7.907   1.138   5.572
 6070SOL    HW130241   7.974   1.066   5.551
 6070SOL    HW230242   7.839   1.143   5.499
 6071SOL     OW30243   8.541   0.448   6.336
 6071SOL    HW130244   8.582   0.514   6.400
 6071SOL    HW230245   8.541   0.487   6.244
 6072SOL     OW30246   2.019   3.097   0.827
 6072SOL    HW130247   2.115   3.110   0.802
 6072SOL    HW230248   2.013   3.072   0.924
 6073SOL     OW30249   3.226   1.249   1.931
 6073SOL    HW130250   3.290   1.325   1.917
 6073SOL    HW230251   3.141   1.285   1.970
 6074SOL     OW30252   6.215   6.124   6.434
 6074SOL    HW130253   6.309   6.115   6.467
 6074SOL    HW230254   6.204   6.212   6.388
 6075SOL     OW30255   7.508   1.552   0.493
 6075SOL    HW130256   7.519   1.592   0.584
 6075SOL    HW230257   7.453   1.613   0.435
 6076SOL     OW30258   0.840   0.672   0.788
 6076SOL    HW130259   0.751   0.632   0.765
 6076SOL    HW230260   0.828   0.742   0.858
 6077SOL     OW30261   3.709   4.796   1.976
 6077SOL    HW130262   3.620   4.822   2.013
 6077SOL    HW230263   3.765   4.755   2.048
 6078SOL     OW30264   9.538   5.245   1.366
 6078SOL    HW130265   9.536   5.331   1.418
 6078SOL    HW230266   9.628   5.203   1.374
 6079SOL     OW30267   0.973   2.831   6.298
 6079SOL    HW130268   0.917   2.781   6.364
 6079SOL    HW230269   0.914   2.884   6.237
 6080SOL     OW30270   6.987   7.416   6.744
 6080SOL    HW130271   7.052   7.447   6.674
 6080SOL    HW230272   6.946   7.496   6.789
 6081SOL     OW30273   4.360   0.842   0.597
 6081SOL    HW130274   4.275   0.803   0.562
 6081SOL    HW230275   4.435   0.779   0.579
 6082SOL     OW30276   8.282   2.212   6.652
 6082SOL    HW130277   8.301   2.117   6.674
 6082SOL    HW230278   8.254   2.261   6.734
 6083SOL     OW30279   7.380   7.566   1.086
 6083SOL    HW130280   7.319   7.632   1.131
 6083SOL    HW230281   7.378   7.480   1.138
 6084SOL     OW30282   4.735   0.773   6.377
 6084SOL    HW130283   4.794   0.846   6.411
 6084SOL    HW230284   4.708   0.714   6.452
 6085SOL     OW30285   7.756   5.383   5.647
 6085SOL    HW130286   7.783   5.381   5.551
 6085SOL    HW230287   7.715   5.472   5.668
 6086SOL     OW30288   4.139   1.217   1.860
 6086SOL    HW130289   4.083   1.221   1.942
 6086SOL    HW230290   4.117   1.134   1.808
 6087SOL     OW30291   6.978   1.823   2.062
 6087SOL    HW130292   6.981   1.830   1.962
 6087SOL    HW230293   6.906   1.758   2.089
 6088SOL     OW30294   4.015   5.656   0.772
 6088SOL    HW130295   4.094   5.714   0.794
 6088SOL    HW230296   4.033   5.605   0.688
 6089SOL     OW30297   6.153   5.257   5.777
 6089SOL    HW130298   6.073   5.257   5.837
 6089SOL    HW230299   6.232   5.296   5.826
 6090SOL     OW30300   4.408   1.662   1.619
 6090SOL    HW130301   4.442   1.751   1.648
 6090SOL    HW230302   4.320   1.672   1.574
 6091SOL     OW30303   6.187   7.405   5.258
 6091SOL    HW130304   6.103   7.456   5.274
 6091SOL    HW230305   6.265   7.468   5.259
 6092SOL     OW30306   4.927   5.964   5.833
 6092SOL    HW130307   4.951   5.922   5.745
 6092SOL    HW230308   4.829   5.987   5.832
 6093SOL     OW30309   8.944   6.608   6.760
 6093SOL    HW130310   8.845   6.612   6.745
 6093SOL    HW230311   8.991   6.613   6.672
 6094SOL     OW30312   7.854   3.243   0.605
 6094SOL    HW130313   7.916   3.321   0.600
 6094SOL    HW230314   7.770   3.271   0.651
 6095SOL     OW30315   6.419   6.879   5.679
 6095SOL    HW130316   6.514   6.866   5.708
 6095SOL    HW230317   6.371   6.791   5.680
 6096SOL     OW30318   5.774   3.246   0.972
 6096SOL    HW130319   5.778   3.166   1.033
 6096SOL    HW230320   5.703   3.308   1.004
 6097SOL     OW30321   7.161   2.257   1.967
 6097SOL    HW130322   7.175   2.160   1.947
 6097SOL    HW230323   7.082   2.267   2.028
 6098SOL     OW30324   0.654   7.304   0.359
 6098SOL    HW130325   0.558   7.322   0.340
 6098SOL    HW230326   0.671   7.313   0.457
 6099SOL     OW30327   0.913   5.125   5.037
 6099SOL    HW130328   0.926   5.207   4.981
 6099SOL    HW230329   0.904   5.045   4.978
 6100SOL     OW30330   4.138   4.365   0.295
 6100SOL    HW130331   4.167   4.283   0.345
 6100SOL    HW230332   4.176   4.364   0.203
 6101SOL     OW30333   1.153   7.555   4.298
 6101SOL    HW130334   1.231   7.550   4.236
 6101SOL    HW230335   1.103   7.640   4.283
 6102SOL     OW30336   7.503   0.041   6.278
 6102SOL    HW130337   7.518   0.032   6.377
 6102SOL    HW230338   7.428  -0.020   6.250
 6103SOL     OW30339   3.090   1.085   5.974
 6103SOL    HW130340   3.140   1.036   5.902
 6103SOL    HW230341   3.048   1.020   6.036
 6104SOL     OW30342   6.627   1.321   0.608
 6104SOL    HW130343   6.684   1.363   0.679
 6104SOL    HW230344   6.531   1.330   0.634
 6105SOL     OW30345   2.194   5.459   6.603
 6105SOL    HW130346   2.134   5.450   6.682
 6105SOL    HW230347   2.286   5.483   6.633
 6106SOL     OW30348   4.429   7.469   1.750
 6106SOL    HW130349   4.443   7.371   1.762
 6106SOL    HW230350   4.512   7.519   1.777
 6107SOL     OW30351   6.610   8.346   1.023
 6107SOL    HW130352   6.651   8.258   0.999
 6107SOL    HW230353   6.530   8.362   0.966
 6108SOL     OW30354   1.170   7.804   5.702
 6108SOL    HW130355   1.095   7.784   5.765
 6108SOL    HW230356   1.136   7.804   5.608
 6109SOL     OW30357   1.716   0.412   0.639
 6109SOL    HW130358   1.764   0.500   0.633
 6109SOL    HW230359   1.620   0.428   0.663
 6110SOL     OW30360   3.779   4.081   1.985
 6110SOL    HW130361   3.798   4.109   2.079
 6110SOL    HW230362   3.688   4.113   1.959
 6111SOL     OW30363   9.272   5.463   0.721
 6111SOL    HW130364   9.330   5.382   0.714
 6111SOL    HW230365   9.282   5.503   0.813
 6112SOL     OW30366   0.390   0.894   1.533
 6112SOL    HW130367   0.293   0.915   1.516
 6112SOL    HW230368   0.398   0.840   1.617
 6113SOL     OW30369   9.137   1.785   1.023
 6113SOL    HW130370   9.062   1.831   0.975
 6113SOL    HW230371   9.135   1.810   1.120
 6114SOL     OW30372   1.885   4.822   4.847
 6114SOL    HW130373   1.844   4.857   4.763
 6114SOL    HW230374   1.835   4.742   4.878
 6115SOL     OW30375   2.491   7.569   1.417
 6115SOL    HW130376   2.410   7.555   1.359
 6115SOL    HW230377   2.463   7.612   1.503
 6116SOL     OW30378   6.970   7.080   6.228
 6116SOL    HW130379   6.893   7.099   6.167
 6116SOL    HW230380   7.045   7.142   6.208
 6117SOL     OW30381   6.186   8.251   1.751
 6117SOL    HW130382   6.226   8.268   1.840
 6117SOL    HW230383   6.253   8.273   1.679
 6118SOL     OW30384   3.184   4.240   5.789
 6118SOL    HW130385   3.222   4.186   5.714
 6118SOL    HW230386   3.232   4.218   5.874
 6119SOL     OW30387   2.827   0.859   6.577
 6119SOL    HW130388   2.778   0.832   6.660
 6119SOL    HW230389   2.837   0.958   6.574
 6120SOL     OW30390   3.006   1.707   6.625
 6120SOL    HW130391   2.975   1.620   6.663
 6120SOL    HW230392   2.941   1.737   6.554
 6121SOL     OW30393   3.115   6.864   6.602
 6121SOL    HW130394   3.056   6.942   6.620
 6121SOL    HW230395   3.199   6.896   6.558
 6122SOL     OW30396   4.470   4.099   6.479
 6122SOL    HW130397   4.455   4.115   6.381
 6122SOL    HW230398   4.542   4.160   6.512
 6123SOL     OW30399   0.187   6.142   0.323
 6123SOL    HW130400   0.256   6.071   0.335
 6123SOL    HW230401   0.119   6.112   0.256
 6124SOL     OW30402   7.040   6.980   5.734
 6124SOL    HW130403   7.072   7.052   5.795
 6124SOL    HW230404   7.119   6.931   5.696
 6125SOL     OW30405   5.913   7.725   1.462
 6125SOL    HW130406   5.944   7.696   1.552
 6125SOL    HW230407   5.932   7.822   1.450
 6126SOL     OW30408   7.486   4.856   1.139
 6126SOL    HW130409   7.412   4.898   1.086
 6126SOL    HW230410   7.514   4.919   1.211
 6127SOL     OW30411   6.610   5.790   0.896
 6127SOL    HW130412   6.555   5.840   0.963
 6127SOL    HW230413   6.643   5.854   0.827
 6128SOL     OW30414   4.172   0.183   6.379
 6128SOL    HW130415   4.195   0.114   6.449
 6128SOL    HW230416   4.224   0.165   6.296
 6129SOL     OW30417   0.622   3.364   0.648
 6129SOL    HW130418   0.606   3.454   0.607
 6129SOL    HW230419   0.536   3.330   0.686
 6130SOL     OW30420   4.032   3.894   6.679
 6130SOL    HW130421   4.006   3.971   6.737
 6130SOL    HW230422   4.117   3.854   6.713
 6131SOL     OW30423   4.618   6.101   6.170
 6131SOL    HW130424   4.581   6.095   6.263
 6131SOL    HW230425   4.708   6.058   6.166
 6132SOL     OW30426   8.208   2.163   1.191
 6132SOL    HW130427   8.296   2.204   1.170
 6132SOL    HW230428   8.138   2.234   1.199
 6133SOL     OW30429   0.880   3.363   0.794
 6133SOL    HW130430   0.950   3.387   0.727
 6133SOL    HW230431   0.790   3.384   0.758
 6134SOL     OW30432   2.336   0.151   6.061
 6134SOL    HW130433   2.257   0.123   6.005
 6134SOL    HW230434   2.328   0.248   6.084
 6135SOL     OW30435   3.179   7.769   6.195
 6135SOL    HW130436   3.088   7.791   6.161
 6135SOL    HW230437   3.245   7.834   6.156
 6136SOL     OW30438   4.222   6.840   0.631
 6136SOL    HW130439   4.172   6.823   0.547
 6136SOL    HW230440   4.203   6.767   0.697
 6137SOL     OW30441   1.482   2.641   0.389
 6137SOL    HW130442   1.565   2.644   0.443
 6137SOL    HW230443   1.432   2.556   0.408
 6138SOL     OW30444   3.141   3.630   5.887
 6138SOL    HW130445   3.160   3.550   5.830
 6138SOL    HW230446   3.132   3.711   5.830
 6139SOL     OW30447   2.253   1.496   6.562
 6139SOL    HW130448   2.242   1.462   6.468
 6139SOL    HW230449   2.167   1.487   6.611
 6140SOL     OW30450   1.820   4.213   6.176
 6140SOL    HW130451   1.734   4.236   6.131
 6140SOL    HW230452   1.884   4.289   6.168
 6141SOL     OW30453   4.944   7.193   0.661
 6141SOL    HW130454   5.041   7.214   0.650
 6141SOL    HW230455   4.922   7.184   0.758
 6142SOL     OW30456   1.680   7.209   1.414
 6142SOL    HW130457   1.637   7.135   1.465
 6142SOL    HW230458   1.618   7.287   1.410
 6143SOL     OW30459   9.596   8.023   5.108
 6143SOL    HW130460   9.689   8.018   5.144
 6143SOL    HW230461   9.583   8.112   5.064
 6144SOL     OW30462   8.801   3.794   5.911
 6144SOL    HW130463   8.722   3.826   5.859
 6144SOL    HW230464   8.868   3.753   5.849
 6145SOL     OW30465   5.904   8.400   2.046
 6145SOL    HW130466   5.835   8.330   2.063
 6145SOL    HW230467   5.922   8.450   2.131
 6146SOL     OW30468   7.346   0.278   1.467
 6146SOL    HW130469   7.389   0.197   1.507
 6146SOL    HW230470   7.254   0.290   1.507
 6147SOL     OW30471   6.593   2.700   6.530
 6147SOL    HW130472   6.561   2.746   6.447
 6147SOL    HW230473   6.663   2.757   6.575
 6148SOL     OW30474   2.080   3.664   6.189
 6148SOL    HW130475   2.018   3.632   6.117
 6148SOL    HW230476   2.043   3.640   6.279
 6149SOL     OW30477   6.252   6.051   6.864
 6149SOL    HW130478   6.171   5.994   6.872
 6149SOL    HW230479   6.302   6.026   6.780
 6150SOL     OW30480   3.696   2.973   1.223
 6150SOL    HW130481   3.612   2.993   1.172
 6150SOL    HW230482   3.741   2.893   1.184
 6151SOL     OW30483   1.159   8.224   6.248
 6151SOL    HW130484   1.109   8.275   6.318
 6151SOL    HW230485   1.247   8.267   6.232
 6152SOL     OW30486   7.307   5.310   6.088
 6152SOL    HW130487   7.233   5.318   6.155
 6152SOL    HW230488   7.272   5.268   6.005
 6153SOL     OW30489   9.213   1.529   5.963
 6153SOL    HW130490   9.172   1.619   5.948
 6153SOL    HW230491   9.312   1.535   5.954
 6154SOL     OW30492   6.834   7.335   5.452
 6154SOL    HW130493   6.809   7.243   5.483
 6154SOL    HW230494   6.789   7.354   5.365
 6155SOL     OW30495   1.448   6.858   6.347
 6155SOL    HW130496   1.463   6.919   6.425
 6155SOL    HW230497   1.490   6.769   6.366
 6156SOL     OW30498   2.549   1.742   1.042
 6156SOL    HW130499   2.541   1.644   1.029
 6156SOL    HW230500   2.462   1.779   1.075
 6157SOL     OW30501   8.491   1.120   6.002
 6157SOL    HW130502   8.537   1.044   5.956
 6157SOL    HW230503   8.401   1.134   5.961
 6158SOL     OW30504   2.970   5.883   6.399
 6158SOL    HW130505   2.987   5.981   6.390
 6158SOL    HW230506   3.014   5.849   6.483
 6159SOL     OW30507   3.390   1.333   2.187
 6159SOL    HW130508   3.392   1.233   2.193
 6159SOL    HW230509   3.466   1.371   2.239
 6160SOL     OW30510   4.646   5.993   1.859
 6160SOL    HW130511   4.712   5.946   1.918
 6160SOL    HW230512   4.693   6.029   1.779
 6161SOL     OW30513   1.195   4.519   0.611
 6161SOL    HW130514   1.096   4.522   0.596
 6161SOL    HW230515   1.242   4.502   0.525
 6162SOL     OW30516   1.571   0.675   6.009
 6162SOL    HW130517   1.559   0.774   6.010
 6162SOL    HW230518   1.482   0.630   6.011
 6163SOL     OW30519   6.313   7.468   0.580
 6163SOL    HW130520   6.288   7.376   0.548
 6163SOL    HW230521   6.230   7.520   0.600
 6164SOL     OW30522   1.409   0.204   5.982
 6164SOL    HW130523   1.401   0.276   6.051
 6164SOL    HW230524   1.499   0.161   5.989
 6165SOL     OW30525   3.499   2.921   1.662
 6165SOL    HW130526   3.495   2.930   1.562
 6165SOL    HW230527   3.592   2.943   1.693
 6166SOL     OW30528   2.954   3.430   0.572
 6166SOL    HW130529   3.003   3.352   0.611
 6166SOL    HW230530   2.994   3.455   0.484
 6167SOL     OW30531   0.144   3.179   0.898
 6167SOL    HW130532   0.127   3.275   0.919
 6167SOL    HW230533   0.202   3.139   0.970
 6168SOL     OW30534   6.810   4.920   6.191
 6168SOL    HW130535   6.831   4.919   6.094
 6168SOL    HW230536   6.828   5.011   6.229
 6169SOL     OW30537   2.887   5.557   6.272
 6169SOL    HW130538   2.892   5.646   6.318
 6169SOL    HW230539   2.979   5.519   6.263
 6170SOL     OW30540   3.639   7.851   6.708
 6170SOL    HW130541   3.627   7.934   6.654
 6170SOL    HW230542   3.552   7.802   6.713
 6171SOL     OW30543   7.025   3.946   0.806
 6171SOL    HW130544   7.040   3.951   0.707
 6171SOL    HW230545   7.101   3.989   0.854
 6172SOL     OW30546   4.339   0.525   6.765
 6172SOL    HW130547   4.336   0.458   6.691
 6172SOL    HW230548   4.361   0.615   6.729
 6173SOL     OW30549   6.343   5.986   0.849
 6173SOL    HW130550   6.349   6.037   0.763
 6173SOL    HW230551   6.426   6.003   0.903
 6174SOL     OW30552   8.219   6.092   0.615
 6174SOL    HW130553   8.240   6.141   0.699
 6174SOL    HW230554   8.121   6.074   0.610
 6175SOL     OW30555   4.424   0.015   1.234
 6175SOL    HW130556   4.489  -0.050   1.272
 6175SOL    HW230557   4.333  -0.026   1.234
 6176SOL     OW30558   3.249   7.337   1.832
 6176SOL    HW130559   3.171   7.384   1.791
 6176SOL    HW230560   3.270   7.378   1.921
 6177SOL     OW30561   4.630   5.432   5.478
 6177SOL    HW130562   4.578   5.387   5.405
 6177SOL    HW230563   4.713   5.471   5.440
 6178SOL     OW30564   3.095   7.246   5.586
 6178SOL    HW130565   3.084   7.147   5.582
 6178SOL    HW230566   3.156   7.276   5.513
 6179SOL     OW30567   9.462   7.272   6.296
 6179SOL    HW130568   9.520   7.349   6.325
 6179SOL    HW230569   9.514   7.187   6.302
 6180SOL     OW30570   2.848   0.808   1.675
 6180SOL    HW130571   2.887   0.729   1.721
 6180SOL    HW230572   2.749   0.797   1.667
 6181SOL     OW30573   4.835   3.207   6.885
 6181SOL    HW130574   4.754   3.163   6.847
 6181SOL    HW230575   4.917   3.168   6.844
 6182SOL     OW30576   8.223   4.671   0.783
 6182SOL    HW130577   8.285   4.616   0.727
 6182SOL    HW230578   8.129   4.659   0.750
 6183SOL     OW30579   2.399   2.575   1.238
 6183SOL    HW130580   2.325   2.509   1.251
 6183SOL    HW230581   2.383   2.654   1.297
 6184SOL     OW30582   4.813   0.449   5.630
 6184SOL    HW130583   4.869   0.516   5.580
 6184SOL    HW230584   4.733   0.496   5.670
 6185SOL     OW30585   8.678   3.441   0.443
 6185SOL    HW130586   8.579   3.431   0.447
 6185SOL    HW230587   8.711   3.405   0.355
 6186SOL     OW30588   4.860   0.687   4.983
 6186SOL    HW130589   4.780   0.745   4.993
 6186SOL    HW230590   4.929   0.733   4.928
 6187SOL     OW30591   8.232   6.634   4.918
 6187SOL    HW130592   8.157   6.630   4.984
 6187SOL    HW230593   8.221   6.560   4.852
 6188SOL     OW30594   5.478   5.205   1.467
 6188SOL    HW130595   5.536   5.194   1.548
 6188SOL    HW230596   5.536   5.218   1.386
 6189SOL     OW30597   0.174   3.636   6.715
 6189SOL    HW130598   0.088   3.585   6.710
 6189SOL    HW230599   0.178   3.701   6.638
 6190SOL     OW30600   1.756   6.810   5.219
 6190SOL    HW130601   1.840   6.757   5.233
 6190SOL    HW230602   1.739   6.819   5.120
 6191SOL     OW30603   2.534   2.327   1.045
 6191SOL    HW130604   2.512   2.270   0.966
 6191SOL    HW230605   2.588   2.406   1.016
 6192SOL     OW30606   7.246   4.057   0.973
 6192SOL    HW130607   7.279   3.992   1.041
 6192SOL    HW230608   7.264   4.150   1.005
 6193SOL     OW30609   0.677   6.024   6.946
 6193SOL    HW130610   0.670   5.982   6.855
 6193SOL    HW230611   0.595   6.002   6.998
 6194SOL     OW30612   1.708   7.309   0.701
 6194SOL    HW130613   1.666   7.240   0.760
 6194SOL    HW230614   1.775   7.361   0.754
 6195SOL     OW30615   0.545   0.580   0.298
 6195SOL    HW130616   0.606   0.659   0.296
 6195SOL    HW230617   0.491   0.581   0.383
 6196SOL     OW30618   5.295   6.482   5.315
 6196SOL    HW130619   5.205   6.512   5.286
 6196SOL    HW230620   5.322   6.401   5.262
 6197SOL     OW30621   1.473   1.106   1.063
 6197SOL    HW130622   1.436   1.094   1.155
 6197SOL    HW230623   1.477   1.017   1.017
 6198SOL     OW30624   6.531   5.935   6.800
 6198SOL    HW130625   6.494   5.843   6.788
 6198SOL    HW230626   6.594   5.936   6.877
 6199SOL     OW30627   3.850   2.874   6.401
 6199SOL    HW130628   3.837   2.858   6.303
 6199SOL    HW230629   3.915   2.948   6.415
 6200SOL     OW30630   8.430   2.628   6.358
 6200SOL    HW130631   8.403   2.622   6.262
 6200SOL    HW230632   8.469   2.540   6.387
 6201SOL     OW30633   0.871   7.170   1.658
 6201SOL    HW130634   0.821   7.246   1.700
 6201SOL    HW230635   0.880   7.096   1.724
 6202SOL     OW30636   5.781   0.493   1.153
 6202SOL    HW130637   5.758   0.416   1.212
 6202SOL    HW230638   5.865   0.472   1.103
 6203SOL     OW30639   8.828   7.080   6.747
 6203SOL    HW130640   8.896   7.118   6.809
 6203SOL    HW230641   8.737   7.111   6.774
 6204SOL     OW30642   9.352   2.275   6.142
 6204SOL    HW130643   9.404   2.196   6.110
 6204SOL    HW230644   9.260   2.272   6.102
 6205SOL     OW30645   2.279   7.129   5.694
 6205SOL    HW130646   2.291   7.159   5.600
 6205SOL    HW230647   2.321   7.039   5.706
 6206SOL     OW30648   1.182   6.920   4.762
 6206SOL    HW130649   1.257   6.892   4.702
 6206SOL    HW230650   1.188   6.871   4.849
 6207SOL     OW30651   9.442   0.233   0.931
 6207SOL    HW130652   9.386   0.160   0.892
 6207SOL    HW230653   9.538   0.214   0.913
 6208SOL     OW30654   1.942   7.771   1.147
 6208SOL    HW130655   1.965   7.696   1.209
 6208SOL    HW230656   1.973   7.750   1.055
 6209SOL     OW30657   3.772   7.129   1.254
 6209SOL    HW130658   3.826   7.082   1.324
 6209SOL    HW230659   3.781   7.228   1.266
 6210SOL     OW30660   5.631   7.354   6.863
 6210SOL    HW130661   5.570   7.346   6.784
 6210SOL    HW230662   5.680   7.268   6.876
 6211SOL     OW30663   8.885   3.834   1.080
 6211SOL    HW130664   8.881   3.740   1.114
 6211SOL    HW230665   8.975   3.872   1.101
 6212SOL     OW30666   9.456   2.801   0.607
 6212SOL    HW130667   9.472   2.759   0.517
 6212SOL    HW230668   9.530   2.776   0.669
 6213SOL     OW30669   6.568   0.580   0.829
 6213SOL    HW130670   6.549   0.676   0.806
 6213SOL    HW230671   6.506   0.551   0.902
 6214SOL     OW30672   9.562   1.310   0.810
 6214SOL    HW130673   9.487   1.374   0.828
 6214SOL    HW230674   9.648   1.349   0.843
 6215SOL     OW30675   7.972   3.596   2.056
 6215SOL    HW130676   7.923   3.616   2.140
 6215SOL    HW230677   7.982   3.497   2.047
 6216SOL     OW30678   6.166   0.988   6.741
 6216SOL    HW130679   6.216   0.957   6.660
 6216SOL    HW230680   6.230   1.006   6.815
 6217SOL     OW30681   3.984   4.536   0.737
 6217SOL    HW130682   4.039   4.618   0.750
 6217SOL    HW230683   3.912   4.532   0.807
 6218SOL     OW30684   6.715   1.558   5.784
 6218SOL    HW130685   6.654   1.532   5.709
 6218SOL    HW230686   6.777   1.630   5.754
 6219SOL     OW30687   0.294   0.200   0.648
 6219SOL    HW130688   0.261   0.107   0.664
 6219SOL    HW230689   0.386   0.209   0.687
 6220SOL     OW30690   4.382   4.693   0.781
 6220SOL    HW130691   4.362   4.653   0.692
 6220SOL    HW230692   4.297   4.710   0.830
 6221SOL     OW30693   6.071   6.597   1.201
 6221SOL    HW130694   6.127   6.623   1.123
 6221SOL    HW230695   6.025   6.511   1.182
 6222SOL     OW30696   4.644   3.086   6.745
 6222SOL    HW130697   4.612   2.997   6.711
 6222SOL    HW230698   4.690   3.135   6.671
 6223SOL     OW30699   9.241   5.393   6.618
 6223SOL    HW130700   9.339   5.379   6.610
 6223SOL    HW230701   9.223   5.474   6.674
 6224SOL     OW30702   9.462   8.368   0.908
 6224SOL    HW130703   9.498   8.414   0.989
 6224SOL    HW230704   9.390   8.424   0.867
 6225SOL     OW30705   6.657   2.457   1.507
 6225SOL    HW130706   6.591   2.444   1.433
 6225SOL    HW230707   6.623   2.526   1.571
 6226SOL     OW30708   5.606   4.675   1.516
 6226SOL    HW130709   5.621   4.770   1.543
 6226SOL    HW230710   5.584   4.621   1.597
 6227SOL     OW30711   0.627   7.031   4.112
 6227SOL    HW130712   0.716   6.988   4.126
 6227SOL    HW230713   0.639   7.130   4.105
 6228SOL     OW30714   7.737   1.896   0.835
 6228SOL    HW130715   7.808   1.848   0.887
 6228SOL    HW230716   7.757   1.994   0.833
 6229SOL     OW30717   5.079   0.696   1.417
 6229SOL    HW130718   5.155   0.703   1.481
 6229SOL    HW230719   5.016   0.625   1.448
 6230SOL     OW30720   9.052   4.234   6.114
 6230SOL    HW130721   9.135   4.185   6.087
 6230SOL    HW230722   8.975   4.201   6.059
 6231SOL     OW30723   7.773   7.186   6.283
 6231SOL    HW130724   7.813   7.233   6.362
 6231SOL    HW230725   7.801   7.090   6.285
 6232SOL     OW30726   5.635   5.077   0.368
 6232SOL    HW130727   5.575   5.018   0.422
 6232SOL    HW230728   5.719   5.093   0.418
 6233SOL     OW30729   7.673   2.419   5.852
 6233SOL    HW130730   7.635   2.506   5.822
 6233SOL    HW230731   7.773   2.424   5.850
 6234SOL     OW30732   6.838   3.349   6.098
 6234SOL    HW130733   6.844   3.328   6.000
 6234SOL    HW230734   6.744   3.339   6.128
 6235SOL     OW30735   7.710   4.638   6.850
 6235SOL    HW130736   7.616   4.672   6.852
 6235SOL    HW230737   7.723   4.573   6.925
 6236SOL     OW30738   7.852   2.144   0.849
 6236SOL    HW130739   7.852   2.209   0.773
 6236SOL    HW230740   7.941   2.146   0.895
 6237SOL     OW30741   6.414   4.124   5.044
 6237SOL    HW130742   6.372   4.177   4.971
 6237SOL    HW230743   6.358   4.131   5.127
 6238SOL     OW30744   2.799   2.424   0.289
 6238SOL    HW130745   2.776   2.348   0.229
 6238SOL    HW230746   2.722   2.444   0.349
 6239SOL     OW30747   1.654   6.306   1.403
 6239SOL    HW130748   1.743   6.270   1.377
 6239SOL    HW230749   1.631   6.275   1.496
 6240SOL     OW30750   8.658   7.780   6.290
 6240SOL    HW130751   8.663   7.783   6.190
 6240SOL    HW230752   8.600   7.704   6.319
 6241SOL     OW30753   0.904   7.711   6.907
 6241SOL    HW130754   0.884   7.613   6.909
 6241SOL    HW230755   0.993   7.728   6.950
 6242SOL     OW30756   3.192   6.395   6.174
 6242SOL    HW130757   3.188   6.355   6.082
 6242SOL    HW230758   3.271   6.358   6.222
 6243SOL     OW30759   0.158   8.383   1.136
 6243SOL    HW130760   0.241   8.386   1.081
 6243SOL    HW230761   0.127   8.288   1.143
 6244SOL     OW30762   4.796   0.285   0.437
 6244SOL    HW130763   4.861   0.239   0.498
 6244SOL    HW230764   4.730   0.218   0.402
 6245SOL     OW30765   5.055   0.963   0.826
 6245SOL    HW130766   4.973   1.019   0.827
 6245SOL    HW230767   5.032   0.871   0.794
 6246SOL     OW30768   0.259   4.222   6.271
 6246SOL    HW130769   0.241   4.314   6.238
 6246SOL    HW230770   0.350   4.193   6.243
 6247SOL     OW30771   6.911   4.976   5.560
 6247SOL    HW130772   6.825   4.924   5.559
 6247SOL    HW230773   6.916   5.034   5.479
 6248SOL     OW30774   8.494   7.416   1.191
 6248SOL    HW130775   8.477   7.511   1.165
 6248SOL    HW230776   8.592   7.399   1.194
 6249SOL     OW30777   7.441   5.019   1.524
 6249SOL    HW130778   7.412   5.012   1.620
 6249SOL    HW230779   7.518   4.958   1.509
 6250SOL     OW30780   8.175   6.573   6.360
 6250SOL    HW130781   8.104   6.554   6.293
 6250SOL    HW230782   8.247   6.628   6.318
 6251SOL     OW30783   0.937   6.775   1.554
 6251SOL    HW130784   0.986   6.862   1.543
 6251SOL    HW230785   0.983   6.720   1.623
 6252SOL     OW30786   1.055   7.607   1.130
 6252SOL    HW130787   1.084   7.532   1.071
 6252SOL    HW230788   1.091   7.592   1.223
 6253SOL     OW30789   5.081   0.129   6.607
 6253SOL    HW130790   5.026   0.183   6.669
 6253SOL    HW230791   5.147   0.188   6.560
 6254SOL     OW30792   4.588   2.110   0.956
 6254SOL    HW130793   4.557   2.021   0.924
 6254SOL    HW230794   4.657   2.098   1.028
 6255SOL     OW30795   6.831   6.692   6.371
 6255SOL    HW130796   6.858   6.679   6.275
 6255SOL    HW230797   6.887   6.634   6.429
 6256SOL     OW30798   4.974   4.343   1.095
 6256SOL    HW130799   5.041   4.418   1.090
 6256SOL    HW230800   5.014   4.261   1.054
 6257SOL     OW30801   8.405   3.068   5.863
 6257SOL    HW130802   8.390   3.100   5.769
 6257SOL    HW230803   8.391   2.969   5.867
 6258SOL     OW30804   8.675   0.556   0.520
 6258SOL    HW130805   8.745   0.507   0.572
 6258SOL    HW230806   8.627   0.493   0.460
 6259SOL     OW30807   3.382   8.431   6.846
 6259SOL    HW130808   3.295   8.459   6.887
 6259SOL    HW230809   3.370   8.420   6.747
 6260SOL     OW30810   8.432   6.602   1.671
 6260SOL    HW130811   8.423   6.549   1.755
 6260SOL    HW230812   8.344   6.605   1.623
 6261SOL     OW30813   0.745   0.549   0.515
 6261SOL    HW130814   0.764   0.522   0.609
 6261SOL    HW230815   0.787   0.483   0.452
 6262SOL     OW30816   6.520   3.037   6.613
 6262SOL    HW130817   6.426   3.072   6.610
 6262SOL    HW230818   6.570   3.071   6.533
 6263SOL     OW30819   2.268   2.277   6.442
 6263SOL    HW130820   2.283   2.179   6.446
 6263SOL    HW230821   2.189   2.296   6.383
 6264SOL     OW30822   7.286   7.903   6.039
 6264SOL    HW130823   7.296   7.803   6.037
 6264SOL    HW230824   7.194   7.926   6.070
 6265SOL     OW30825   4.796   3.725   1.688
 6265SOL    HW130826   4.697   3.729   1.693
 6265SOL    HW230827   4.833   3.710   1.780
 6266SOL     OW30828   5.151   2.003   0.479
 6266SOL    HW130829   5.089   2.064   0.528
 6266SOL    HW230830   5.233   2.053   0.453
 6267SOL     OW30831   3.319   6.401   0.778
 6267SOL    HW130832   3.350   6.456   0.855
 6267SOL    HW230833   3.369   6.315   0.775
 6268SOL     OW30834   4.835   6.773   5.827
 6268SOL    HW130835   4.836   6.688   5.880
 6268SOL    HW230836   4.753   6.825   5.850
 6269SOL     OW30837   8.273   2.256   5.626
 6269SOL    HW130838   8.194   2.208   5.588
 6269SOL    HW230839   8.355   2.233   5.573
 6270SOL     OW30840   1.548   6.640   6.933
 6270SOL    HW130841   1.622   6.706   6.946
 6270SOL    HW230842   1.538   6.621   6.835
 6271SOL     OW30843   7.811   7.145   1.854
 6271SOL    HW130844   7.831   7.047   1.856
 6271SOL    HW230845   7.858   7.190   1.930
 6272SOL     OW30846   2.182   7.518   5.964
 6272SOL    HW130847   2.127   7.539   6.045
 6272SOL    HW230848   2.188   7.419   5.952
 6273SOL     OW30849   3.219   8.064   0.798
 6273SOL    HW130850   3.221   7.964   0.792
 6273SOL    HW230851   3.309   8.098   0.823
 6274SOL     OW30852   7.084   4.457   5.661
 6274SOL    HW130853   7.160   4.512   5.627
 6274SOL    HW230854   7.076   4.373   5.607
 6275SOL     OW30855   3.241   6.862   6.966
 6275SOL    HW130856   3.207   6.768   6.968
 6275SOL    HW230857   3.333   6.863   6.928
 6276SOL     OW30858   3.982   8.154   5.901
 6276SOL    HW130859   3.985   8.248   5.867
 6276SOL    HW230860   4.072   8.128   5.936
 6277SOL     OW30861   5.348   7.606   0.399
 6277SOL    HW130862   5.293   7.690   0.401
 6277SOL    HW230863   5.434   7.622   0.447
 6278SOL     OW30864   2.234   6.205   6.649
 6278SOL    HW130865   2.211   6.228   6.555
 6278SOL    HW230866   2.252   6.289   6.701
 6279SOL     OW30867   7.284   0.866   6.811
 6279SOL    HW130868   7.325   0.818   6.889
 6279SOL    HW230869   7.265   0.801   6.737
 6280SOL     OW30870   5.257   3.067   6.685
 6280SOL    HW130871   5.179   3.109   6.639
 6280SOL    HW230872   5.248   2.967   6.681
 6281SOL     OW30873   7.851   4.721   1.048
 6281SOL    HW130874   7.870   4.817   1.029
 6281SOL    HW230875   7.828   4.710   1.145
 6282SOL     OW30876   3.799   7.971   0.795
 6282SOL    HW130877   3.726   7.967   0.727
 6282SOL    HW230878   3.768   7.925   0.878
 6283SOL     OW30879   2.059   8.238   1.914
 6283SOL    HW130880   2.156   8.229   1.938
 6283SOL    HW230881   2.027   8.153   1.873
 6284SOL     OW30882   9.437   0.447   6.073
 6284SOL    HW130883   9.438   0.468   5.975
 6284SOL    HW230884   9.513   0.385   6.095
 6285SOL     OW30885   4.265   4.145   0.377
 6285SOL    HW130886   4.289   4.073   0.442
 6285SOL    HW230887   4.281   4.112   0.284
 6286SOL     OW30888   0.309   0.831   0.474
 6286SOL    HW130889   0.246   0.900   0.439
 6286SOL    HW230890   0.364   0.871   0.547
 6287SOL     OW30891   6.001   0.236   1.405
 6287SOL    HW130892   6.074   0.179   1.368
 6287SOL    HW230893   5.999   0.323   1.357
 6288SOL     OW30894   6.270   7.900   5.877
 6288SOL    HW130895   6.208   7.822   5.867
 6288SOL    HW230896   6.289   7.939   5.787
 6289SOL     OW30897   3.390   5.932   0.466
 6289SOL    HW130898   3.464   5.984   0.425
 6289SOL    HW230899   3.304   5.953   0.419
 6290SOL     OW30900   4.270   7.457   5.703
 6290SOL    HW130901   4.246   7.535   5.645
 6290SOL    HW230902   4.187   7.412   5.734
 6291SOL     OW30903   1.616   1.745   6.769
 6291SOL    HW130904   1.621   1.830   6.717
 6291SOL    HW230905   1.545   1.752   6.839
 6292SOL     OW30906   7.617   4.971   5.088
 6292SOL    HW130907   7.703   4.919   5.088
 6292SOL    HW230908   7.627   5.051   5.147
 6293SOL     OW30909   8.346   1.309   1.070
 6293SOL    HW130910   8.342   1.330   0.972
 6293SOL    HW230911   8.257   1.275   1.100
 6294SOL     OW30912   0.420   0.609   0.534
 6294SOL    HW130913   0.373   0.534   0.581
 6294SOL    HW230914   0.357   0.685   0.521
 6295SOL     OW30915   8.808   6.037   5.881
 6295SOL    HW130916   8.720   6.017   5.838
 6295SOL    HW230917   8.882   6.014   5.818
 6296SOL     OW30918   7.553  -0.055   6.910
 6296SOL    HW130919   7.528  -0.121   6.981
 6296SOL    HW230920   7.518   0.035   6.935
 6297SOL     OW30921   2.373   0.353   6.579
 6297SOL    HW130922   2.431   0.317   6.651
 6297SOL    HW230923   2.285   0.382   6.618
 6298SOL     OW30924   9.418   5.479   6.126
 6298SOL    HW130925   9.368   5.453   6.208
 6298SOL    HW230926   9.508   5.516   6.153
 6299SOL     OW30927   6.500   4.573   6.404
 6299SOL    HW130928   6.574   4.612   6.349
 6299SOL    HW230929   6.533   4.491   6.451
 6300SOL     OW30930   6.429   7.679   6.776
 6300SOL    HW130931   6.371   7.697   6.855
 6300SOL    HW230932   6.377   7.690   6.692
 6301SOL     OW30933   2.950   3.485   0.981
 6301SOL    HW130934   3.028   3.509   0.924
 6301SOL    HW230935   2.914   3.567   1.025
 6302SOL     OW30936   7.277   2.089   0.445
 6302SOL    HW130937   7.203   2.048   0.499
 6302SOL    HW230938   7.249   2.092   0.349
 6303SOL     OW30939   4.230   3.313   1.141
 6303SOL    HW130940   4.146   3.266   1.166
 6303SOL    HW230941   4.210   3.380   1.069
 6304SOL     OW30942   3.786   4.903   0.819
 6304SOL    HW130943   3.730   4.975   0.778
 6304SOL    HW230944   3.883   4.922   0.803
 6305SOL     OW30945   4.055   1.354   1.505
 6305SOL    HW130946   4.129   1.288   1.494
 6305SOL    HW230947   4.071   1.409   1.587
 6306SOL     OW30948   7.946   0.286   6.172
 6306SOL    HW130949   7.898   0.281   6.085
 6306SOL    HW230950   8.045   0.278   6.157
 6307SOL     OW30951   2.031   4.450   6.077
 6307SOL    HW130952   1.942   4.494   6.088
 6307SOL    HW230953   2.100   4.501   6.129
 6308SOL     OW30954   4.011   0.871   1.439
 6308SOL    HW130955   4.038   0.899   1.347
 6308SOL    HW230956   3.971   0.779   1.436
 6309SOL     OW30957   7.722   0.754   4.987
 6309SOL    HW130958   7.790   0.817   5.025
 6309SOL    HW230959   7.668   0.801   4.917
 6310SOL     OW30960   6.003   7.629   6.511
 6310SOL    HW130961   5.921   7.608   6.565
 6310SOL    HW230962   5.992   7.594   6.418
 6311SOL     OW30963   1.603   2.693   5.398
 6311SOL    HW130964   1.696   2.657   5.398
 6311SOL    HW230965   1.605   2.791   5.378
 6312SOL     OW30966   7.036   3.665   0.675
 6312SOL    HW130967   7.097   3.593   0.709
 6312SOL    HW230968   6.942   3.644   0.701
 6313SOL     OW30969   1.643   2.498   6.252
 6313SOL    HW130970   1.583   2.459   6.322
 6313SOL    HW230971   1.590   2.560   6.194
 6314SOL     OW30972   5.834   2.240   1.972
 6314SOL    HW130973   5.888   2.321   1.949
 6314SOL    HW230974   5.794   2.202   1.888
 6315SOL     OW30975   3.459   6.861   5.637
 6315SOL    HW130976   3.364   6.892   5.640
 6315SOL    HW230977   3.509   6.912   5.566
 6316SOL     OW30978   6.762   2.528   6.358
 6316SOL    HW130979   6.725   2.588   6.429
 6316SOL    HW230980   6.809   2.583   6.289
 6317SOL     OW30981   0.822   7.057   5.162
 6317SOL    HW130982   0.737   7.046   5.214
 6317SOL    HW230983   0.859   6.967   5.140
 6318SOL     OW30984   7.477   5.079   6.559
 6318SOL    HW130985   7.400   5.128   6.601
 6318SOL    HW230986   7.490   4.992   6.606
 6319SOL     OW30987   1.130   6.937   6.012
 6319SOL    HW130988   1.039   6.900   5.991
 6319SOL    HW230989   1.197   6.863   6.006
 6320SOL     OW30990   5.823   2.835   1.573
 6320SOL    HW130991   5.800   2.855   1.668
 6320SOL    HW230992   5.830   2.920   1.521
 6321SOL     OW30993   7.760   4.092   2.077
 6321SOL    HW130994   7.839   4.048   2.037
 6321SOL    HW230995   7.750   4.184   2.039
 6322SOL     OW30996   4.465   6.135   5.940
 6322SOL    HW130997   4.407   6.214   5.958
 6322SOL    HW230998   4.531   6.124   6.015
 6323SOL     OW30999   8.421   0.579   6.854
 6323SOL    HW131000   8.411   0.607   6.949
 6323SOL    HW231001   8.347   0.516   6.829
 6324SOL     OW31002   0.526   2.829   5.429
 6324SOL    HW131003   0.511   2.909   5.370
 6324SOL    HW231004   0.522   2.746   5.374
 6325SOL     OW31005   7.412   4.675   6.235
 6325SOL    HW131006   7.489   4.700   6.295
 6325SOL    HW231007   7.333   4.650   6.292
 6326SOL     OW31008   0.906   2.004   6.871
 6326SOL    HW131009   0.962   2.047   6.801
 6326SOL    HW231010   0.866   1.919   6.835
 6327SOL     OW31011   1.877   4.989   1.152
 6327SOL    HW131012   1.790   4.941   1.143
 6327SOL    HW231013   1.898   5.035   1.066
 6328SOL     OW31014   7.960   8.158   0.306
 6328SOL    HW131015   7.963   8.236   0.369
 6328SOL    HW231016   7.964   8.073   0.359
 6329SOL     OW31017   2.864   5.206   6.075
 6329SOL    HW131018   2.864   5.167   6.167
 6329SOL    HW231019   2.951   5.186   6.030
 6330SOL     OW31020   3.813   7.541   6.735
 6330SOL    HW131021   3.721   7.504   6.721
 6330SOL    HW231022   3.845   7.516   6.826
 6331SOL     OW31023   0.789   6.398   6.818
 6331SOL    HW131024   0.753   6.481   6.776
 6331SOL    HW231025   0.889   6.397   6.807
 6332SOL     OW31026   6.378   2.640   0.983
 6332SOL    HW131027   6.425   2.557   0.953
 6332SOL    HW231028   6.413   2.667   1.073
 6333SOL     OW31029   1.533   5.273   1.448
 6333SOL    HW131030   1.589   5.331   1.508
 6333SOL    HW231031   1.540   5.178   1.479
 6334SOL     OW31032   1.479   1.884   5.086
 6334SOL    HW131033   1.566   1.931   5.077
 6334SOL    HW231034   1.470   1.816   5.013
 6335SOL     OW31035   9.565   4.500   6.409
 6335SOL    HW131036   9.625   4.544   6.477
 6335SOL    HW231037   9.581   4.401   6.410
 6336SOL     OW31038   2.702   5.936   6.870
 6336SOL    HW131039   2.648   6.008   6.827
 6336SOL    HW231040   2.749   5.972   6.950
 6337SOL     OW31041   5.420   1.642   6.531
 6337SOL    HW131042   5.496   1.601   6.481
 6337SOL    HW231043   5.334   1.609   6.492
 6338SOL     OW31044   5.010   4.235   5.520
 6338SOL    HW131045   5.090   4.196   5.474
 6338SOL    HW231046   4.931   4.174   5.506
 6339SOL     OW31047   7.090   1.255   1.804
 6339SOL    HW131048   7.161   1.324   1.786
 6339SOL    HW231049   7.008   1.300   1.840
 6340SOL     OW31050   8.314   1.994   6.857
 6340SOL    HW131051   8.410   1.984   6.829
 6340SOL    HW231052   8.257   1.933   6.802
 6341SOL     OW31053   1.795   6.862   0.696
 6341SOL    HW131054   1.764   6.770   0.720
 6341SOL    HW231055   1.773   6.881   0.600
 6342SOL     OW31056   5.381   7.061   0.661
 6342SOL    HW131057   5.443   7.081   0.584
 6342SOL    HW231058   5.306   7.003   0.629
 6343SOL     OW31059   6.024   5.413   5.231
 6343SOL    HW131060   5.977   5.481   5.174
 6343SOL    HW231061   6.121   5.437   5.237
 6344SOL     OW31062   2.226   6.793   0.542
 6344SOL    HW131063   2.185   6.769   0.631
 6344SOL    HW231064   2.206   6.888   0.521
 6345SOL     OW31065   0.213   7.794   4.952
 6345SOL    HW131066   0.192   7.875   5.007
 6345SOL    HW231067   0.312   7.788   4.938
 6346SOL     OW31068   4.068   2.000   2.598
 6346SOL    HW131069   3.986   1.975   2.649
 6346SOL    HW231070   4.078   2.099   2.596
 6347SOL     OW31071   4.693   6.063   5.806
 6347SOL    HW131072   4.604   6.098   5.834
 6347SOL    HW231073   4.704   6.073   5.707
 6348SOL     OW31074   6.469  -0.033   6.972
 6348SOL    HW131075   6.401   0.019   6.920
 6348SOL    HW231076   6.463  -0.008   7.069
 6349SOL     OW31077   1.876   5.863   6.522
 6349SOL    HW131078   1.955   5.811   6.488
 6349SOL    HW231079   1.796   5.843   6.465
 6350SOL     OW31080   4.501   4.394   6.000
 6350SOL    HW131081   4.499   4.295   5.988
 6350SOL    HW231082   4.429   4.436   5.943
 6351SOL     OW31083   3.648   7.835   0.422
 6351SOL    HW131084   3.678   7.914   0.368
 6351SOL    HW231085   3.673   7.751   0.375
 6352SOL     OW31086   3.074   5.173   1.078
 6352SOL    HW131087   3.049   5.268   1.059
 6352SOL    HW231088   3.081   5.158   1.176
 6353SOL     OW31089   8.850   7.001   5.682
 6353SOL    HW131090   8.851   6.902   5.664
 6353SOL    HW231091   8.934   7.027   5.730
 6354SOL     OW31092   3.145   0.268   0.597
 6354SOL    HW131093   3.169   0.243   0.690
 6354SOL    HW231094   3.057   0.228   0.573
 6355SOL     OW31095   6.764   2.742   0.802
 6355SOL    HW131096   6.857   2.748   0.764
 6355SOL    HW231097   6.707   2.814   0.761
 6356SOL     OW31098   2.242   5.626   4.955
 6356SOL    HW131099   2.260   5.653   4.861
 6356SOL    HW231100   2.321   5.646   5.012
 6357SOL     OW31101   8.436   7.972   1.641
 6357SOL    HW131102   8.411   7.919   1.722
 6357SOL    HW231103   8.421   8.069   1.658
 6358SOL     OW31104   8.852   0.441   6.468
 6358SOL    HW131105   8.872   0.343   6.473
 6358SOL    HW231106   8.871   0.474   6.375
 6359SOL     OW31107   4.308   3.857   6.186
 6359SOL    HW131108   4.277   3.929   6.124
 6359SOL    HW231109   4.370   3.796   6.137
 6360SOL     OW31110   4.922   3.304   1.670
 6360SOL    HW131111   4.930   3.396   1.632
 6360SOL    HW231112   5.002   3.250   1.643
 6361SOL     OW31113   0.878   3.516   5.174
 6361SOL    HW131114   0.849   3.610   5.191
 6361SOL    HW231115   0.947   3.515   5.102
 6362SOL     OW31116   8.116   6.305   6.752
 6362SOL    HW131117   8.120   6.244   6.673
 6362SOL    HW231118   8.136   6.399   6.722
 6363SOL     OW31119   8.255   7.286   5.755
 6363SOL    HW131120   8.352   7.280   5.729
 6363SOL    HW231121   8.199   7.247   5.682
 6364SOL     OW31122   9.215   3.785   6.211
 6364SOL    HW131123   9.207   3.686   6.214
 6364SOL    HW231124   9.143   3.826   6.267
 6365SOL     OW31125   4.045   6.825   1.220
 6365SOL    HW131126   4.051   6.725   1.213
 6365SOL    HW231127   3.954   6.851   1.254
 6366SOL     OW31128   2.519   2.985   1.741
 6366SOL    HW131129   2.519   2.887   1.719
 6366SOL    HW231130   2.514   2.997   1.840
 6367SOL     OW31131   7.227   7.570   0.716
 6367SOL    HW131132   7.220   7.622   0.631
 6367SOL    HW231133   7.307   7.511   0.714
 6368SOL     OW31134   9.105   7.941   6.584
 6368SOL    HW131135   9.071   7.848   6.574
 6368SOL    HW231136   9.179   7.957   6.519
 6369SOL     OW31137   3.319   5.292   6.461
 6369SOL    HW131138   3.239   5.232   6.457
 6369SOL    HW231139   3.348   5.315   6.368
 6370SOL     OW31140   4.785   5.334   2.300
 6370SOL    HW131141   4.884   5.347   2.310
 6370SOL    HW231142   4.738   5.421   2.316
 6371SOL     OW31143   2.018   5.354   0.863
 6371SOL    HW131144   2.110   5.314   0.867
 6371SOL    HW231145   1.999   5.403   0.949
 6372SOL     OW31146   4.000   0.894   5.188
 6372SOL    HW131147   4.068   0.837   5.142
 6372SOL    HW231148   4.019   0.897   5.286
 6373SOL     OW31149   3.925   1.617   0.783
 6373SOL    HW131150   3.950   1.704   0.740
 6373SOL    HW231151   4.006   1.558   0.787
 6374SOL     OW31152   4.628   3.900   5.462
 6374SOL    HW131153   4.593   3.810   5.438
 6374SOL    HW231154   4.565   3.970   5.431
 6375SOL     OW31155   7.848   7.068   5.703
 6375SOL    HW131156   7.946   7.072   5.684
 6375SOL    HW231157   7.798   7.066   5.617
 6376SOL     OW31158   1.666   1.506   1.084
 6376SOL    HW131159   1.695   1.440   1.153
 6376SOL    HW231160   1.632   1.456   1.003
 6377SOL     OW31161   3.648   8.107   6.543
 6377SOL    HW131162   3.552   8.116   6.516
 6377SOL    HW231163   3.663   8.152   6.630
 6378SOL     OW31164   2.048   5.489   6.188
 6378SOL    HW131165   2.118   5.561   6.192
 6378SOL    HW231166   2.057   5.440   6.101
 6379SOL     OW31167   9.349   5.987   6.539
 6379SOL    HW131168   9.270   6.035   6.577
 6379SOL    HW231169   9.431   6.010   6.592
 6380SOL     OW31170   1.971   1.781   6.684
 6380SOL    HW131171   1.941   1.711   6.749
 6380SOL    HW231172   2.071   1.781   6.679
 6381SOL     OW31173   5.952   5.749   0.532
 6381SOL    HW131174   6.014   5.806   0.478
 6381SOL    HW231175   6.003   5.670   0.567
 6382SOL     OW31176   4.224   3.589   0.430
 6382SOL    HW131177   4.283   3.538   0.368
 6382SOL    HW231178   4.195   3.674   0.385
 6383SOL     OW31179   5.414   7.040   1.553
 6383SOL    HW131180   5.490   6.980   1.577
 6383SOL    HW231181   5.388   7.094   1.633
 6384SOL     OW31182   6.393   7.685   1.825
 6384SOL    HW131183   6.344   7.624   1.888
 6384SOL    HW231184   6.490   7.660   1.823
 6385SOL     OW31185   4.911   4.010   2.055
 6385SOL    HW131186   4.904   4.104   2.088
 6385SOL    HW231187   4.842   3.953   2.099
 6386SOL     OW31188   1.472   6.757   0.640
 6386SOL    HW131189   1.407   6.720   0.574
 6386SOL    HW231190   1.545   6.806   0.592
 6387SOL     OW31191   6.274   2.923   5.892
 6387SOL    HW131192   6.331   2.852   5.851
 6387SOL    HW231193   6.190   2.934   5.838
 6388SOL     OW31194   2.893   4.991   0.989
 6388SOL    HW131195   2.891   4.899   1.030
 6388SOL    HW231196   2.961   5.046   1.036
 6389SOL     OW31197   1.322   2.199   6.562
 6389SOL    HW131198   1.261   2.153   6.497
 6389SOL    HW231199   1.298   2.171   6.655
 6390SOL     OW31200   2.323   0.885   6.639
 6390SOL    HW131201   2.288   0.899   6.731
 6390SOL    HW231202   2.379   0.802   6.636
 6391SOL     OW31203   3.845   6.143   1.443
 6391SOL    HW131204   3.755   6.181   1.424
 6391SOL    HW231205   3.848   6.048   1.413
 6392SOL     OW31206   1.472   6.004   6.482
 6392SOL    HW131207   1.399   6.001   6.550
 6392SOL    HW231208   1.478   5.915   6.436
 6393SOL     OW31209   3.755   4.175   5.829
 6393SOL    HW131210   3.676   4.234   5.838
 6393SOL    HW231211   3.834   4.228   5.797
 6394SOL     OW31212   4.157   6.690   6.553
 6394SOL    HW131213   4.131   6.755   6.482
 6394SOL    HW231214   4.114   6.716   6.639
 6395SOL     OW31215   3.714   3.702   1.750
 6395SOL    HW131216   3.759   3.685   1.838
 6395SOL    HW231217   3.646   3.774   1.760
 6396SOL     OW31218   3.907   0.503   5.981
 6396SOL    HW131219   3.891   0.519   6.078
 6396SOL    HW231220   3.932   0.589   5.936
 6397SOL     OW31221   5.766   6.803   6.537
 6397SOL    HW131222   5.793   6.759   6.452
 6397SOL    HW231223   5.708   6.882   6.517
 6398SOL     OW31224   3.758   7.977   5.933
 6398SOL    HW131225   3.839   8.035   5.923
 6398SOL    HW231226   3.759   7.933   6.023
 6399SOL     OW31227   0.926   1.095   1.462
 6399SOL    HW131228   0.858   1.167   1.447
 6399SOL    HW231229   0.899   1.040   1.541
 6400SOL     OW31230   3.233   2.643   6.559
 6400SOL    HW131231   3.326   2.671   6.583
 6400SOL    HW231232   3.227   2.543   6.556
 6401SOL     OW31233   2.583   7.444   5.792
 6401SOL    HW131234   2.569   7.381   5.716
 6401SOL    HW231235   2.509   7.511   5.795
 6402SOL     OW31236   0.566   4.118   0.553
 6402SOL    HW131237   0.543   4.021   0.555
 6402SOL    HW231238   0.482   4.171   0.542
 6403SOL     OW31239   0.668   1.323   1.097
 6403SOL    HW131240   0.651   1.391   1.169
 6403SOL    HW231241   0.693   1.236   1.138
 6404SOL     OW31242   9.114   2.214   6.012
 6404SOL    HW131243   9.138   2.150   5.939
 6404SOL    HW231244   9.016   2.234   6.008
 6405SOL     OW31245   7.834   3.891   6.301
 6405SOL    HW131246   7.845   3.807   6.353
 6405SOL    HW231247   7.810   3.966   6.363
 6406SOL     OW31248   7.211   6.389   5.121
 6406SOL    HW131249   7.199   6.299   5.079
 6406SOL    HW231250   7.212   6.460   5.050
 6407SOL     OW31251   5.015   5.489   2.208
 6407SOL    HW131252   5.054   5.536   2.129
 6407SOL    HW231253   5.034   5.391   2.200
 6408SOL     OW31254   2.307   2.838   0.932
 6408SOL    HW131255   2.387   2.863   0.987
 6408SOL    HW231256   2.227   2.888   0.966
 6409SOL     OW31257   6.376   1.144   6.883
 6409SOL    HW131258   6.451   1.093   6.925
 6409SOL    HW231259   6.373   1.236   6.921
 6410SOL     OW31260   2.479   7.877   6.417
 6410SOL    HW131261   2.453   7.913   6.507
 6410SOL    HW231262   2.477   7.952   6.351
 6411SOL     OW31263   5.135   3.826   6.181
 6411SOL    HW131264   5.198   3.769   6.234
 6411SOL    HW231265   5.174   3.846   6.091
 6412SOL     OW31266   1.367   1.236   6.451
 6412SOL    HW131267   1.349   1.153   6.398
 6412SOL    HW231268   1.435   1.292   6.404
 6413SOL     OW31269   3.280   0.494   6.754
 6413SOL    HW131270   3.314   0.425   6.817
 6413SOL    HW231271   3.246   0.573   6.806
 6414SOL     OW31272   2.125   2.464   1.274
 6414SOL    HW131273   2.078   2.421   1.196
 6414SOL    HW231274   2.069   2.538   1.310
 6415SOL     OW31275   3.022   2.838   0.577
 6415SOL    HW131276   3.040   2.870   0.484
 6415SOL    HW231277   3.094   2.871   0.638
 6416SOL     OW31278   5.920   3.842   5.656
 6416SOL    HW131279   5.822   3.819   5.658
 6416SOL    HW231280   5.969   3.787   5.723
 6417SOL     OW31281   3.705   5.198   5.602
 6417SOL    HW131282   3.636   5.126   5.602
 6417SOL    HW231283   3.742   5.209   5.694
 6418SOL     OW31284   7.999   4.468   6.247
 6418SOL    HW131285   7.944   4.541   6.207
 6418SOL    HW231286   8.085   4.461   6.198
 6419SOL     OW31287   8.251   5.647   6.125
 6419SOL    HW131288   8.179   5.713   6.147
 6419SOL    HW231289   8.333   5.697   6.097
 6420SOL     OW31290   1.905   1.089   0.379
 6420SOL    HW131291   1.972   1.147   0.332
 6420SOL    HW231292   1.883   1.127   0.468
 6421SOL     OW31293   2.761   0.854   6.147
 6421SOL    HW131294   2.831   0.840   6.076
 6421SOL    HW231295   2.749   0.770   6.199
 6422SOL     OW31296   7.924   8.137   6.777
 6422SOL    HW131297   7.913   8.164   6.873
 6422SOL    HW231298   7.842   8.088   6.747
 6423SOL     OW31299   5.995   7.383   0.342
 6423SOL    HW131300   5.989   7.304   0.404
 6423SOL    HW231301   5.904   7.421   0.328
 6424SOL     OW31302   3.396   5.768   1.558
 6424SOL    HW131303   3.468   5.803   1.618
 6424SOL    HW231304   3.395   5.668   1.563
 6425SOL     OW31305   0.400   6.779   5.322
 6425SOL    HW131306   0.473   6.717   5.292
 6425SOL    HW231307   0.357   6.821   5.242
 6426SOL     OW31308   5.608   5.912   5.871
 6426SOL    HW131309   5.622   6.007   5.899
 6426SOL    HW231310   5.545   5.910   5.793
 6427SOL     OW31311   1.463   3.182   1.345
 6427SOL    HW131312   1.557   3.161   1.371
 6427SOL    HW231313   1.407   3.195   1.427
 6428SOL     OW31314   7.670   0.172   0.518
 6428SOL    HW131315   7.746   0.236   0.523
 6428SOL    HW231316   7.589   0.212   0.561
 6429SOL     OW31317   4.835   2.256   1.317
 6429SOL    HW131318   4.809   2.277   1.411
 6429SOL    HW231319   4.791   2.321   1.255
 6430SOL     OW31320   5.402   0.037   1.087
 6430SOL    HW131321   5.399  -0.062   1.100
 6430SOL    HW231322   5.410   0.082   1.176
 6431SOL     OW31323   0.392   7.566   0.804
 6431SOL    HW131324   0.383   7.615   0.891
 6431SOL    HW231325   0.422   7.472   0.822
 6432SOL     OW31326   3.575   8.124   5.388
 6432SOL    HW131327   3.629   8.158   5.311
 6432SOL    HW231328   3.569   8.194   5.458
 6433SOL     OW31329   5.831   7.553   5.881
 6433SOL    HW131330   5.867   7.461   5.864
 6433SOL    HW231331   5.820   7.565   5.980
 6434SOL     OW31332   0.556   5.526   5.422
 6434SOL    HW131333   0.601   5.465   5.358
 6434SOL    HW231334   0.480   5.572   5.377
 6435SOL     OW31335   2.363   5.279   1.122
 6435SOL    HW131336   2.323   5.240   1.205
 6435SOL    HW231337   2.331   5.374   1.112
 6436SOL     OW31338   2.678   4.336   6.931
 6436SOL    HW131339   2.605   4.404   6.922
 6436SOL    HW231340   2.637   4.244   6.929
 6437SOL     OW31341   3.714   4.890   6.832
 6437SOL    HW131342   3.650   4.888   6.908
 6437SOL    HW231343   3.760   4.979   6.829
 6438SOL     OW31344   3.126   7.320   1.289
 6438SOL    HW131345   3.157   7.415   1.288
 6438SOL    HW231346   3.198   7.261   1.326
 6439SOL     OW31347   0.244   2.902   5.890
 6439SOL    HW131348   0.314   2.880   5.822
 6439SOL    HW231349   0.215   2.997   5.879
 6440SOL     OW31350   3.566   6.342   1.892
 6440SOL    HW131351   3.518   6.291   1.963
 6440SOL    HW231352   3.499   6.395   1.839
 6441SOL     OW31353   0.888   2.044   6.427
 6441SOL    HW131354   0.812   2.102   6.456
 6441SOL    HW231355   0.918   2.071   6.336
 6442SOL     OW31356   1.513   0.411   5.733
 6442SOL    HW131357   1.603   0.455   5.739
 6442SOL    HW231358   1.524   0.313   5.722
 6443SOL     OW31359   7.925   6.876   0.775
 6443SOL    HW131360   7.929   6.788   0.823
 6443SOL    HW231361   8.008   6.888   0.721
 6444SOL     OW31362   2.665   2.664   6.512
 6444SOL    HW131363   2.575   2.644   6.550
 6444SOL    HW231364   2.736   2.626   6.571
 6445SOL     OW31365   8.346   8.292   6.121
 6445SOL    HW131366   8.327   8.247   6.208
 6445SOL    HW231367   8.260   8.316   6.076
 6446SOL     OW31368   6.558   6.364   6.933
 6446SOL    HW131369   6.640   6.307   6.921
 6446SOL    HW231370   6.561   6.408   7.023
 6447SOL     OW31371   6.483   2.259   1.292
 6447SOL    HW131372   6.548   2.307   1.234
 6447SOL    HW231373   6.399   2.240   1.241
 6448SOL     OW31374   6.124   3.013   6.618
 6448SOL    HW131375   6.180   2.971   6.546
 6448SOL    HW231376   6.027   3.007   6.593
 6449SOL     OW31377   7.079   6.240   1.073
 6449SOL    HW131378   7.058   6.264   1.167
 6449SOL    HW231379   7.073   6.321   1.015
 6450SOL     OW31380   6.367   5.965   0.366
 6450SOL    HW131381   6.280   5.943   0.411
 6450SOL    HW231382   6.350   5.999   0.274
 6451SOL     OW31383   1.267   5.676   5.952
 6451SOL    HW131384   1.339   5.696   5.885
 6451SOL    HW231385   1.180   5.711   5.918
 6452SOL     OW31386   5.184   8.080   5.403
 6452SOL    HW131387   5.174   7.990   5.446
 6452SOL    HW231388   5.127   8.084   5.321
 6453SOL     OW31389   2.750   6.213   0.514
 6453SOL    HW131390   2.654   6.200   0.540
 6453SOL    HW231391   2.755   6.261   0.427
 6454SOL     OW31392   2.093   1.279   1.440
 6454SOL    HW131393   2.066   1.251   1.533
 6454SOL    HW231394   2.059   1.371   1.421
 6455SOL     OW31395   1.972   6.272   1.873
 6455SOL    HW131396   1.970   6.182   1.916
 6455SOL    HW231397   1.987   6.262   1.774
 6456SOL     OW31398   6.845   6.861   5.916
 6456SOL    HW131399   6.916   6.879   5.847
 6456SOL    HW231400   6.867   6.777   5.965
 6457SOL     OW31401   1.228   3.786   5.808
 6457SOL    HW131402   1.167   3.850   5.761
 6457SOL    HW231403   1.182   3.751   5.891
 6458SOL     OW31404   2.736   2.829   0.289
 6458SOL    HW131405   2.747   2.920   0.249
 6458SOL    HW231406   2.801   2.767   0.247
 6459SOL     OW31407   3.588   3.576   1.127
 6459SOL    HW131408   3.525   3.515   1.175
 6459SOL    HW231409   3.670   3.590   1.182
 6460SOL     OW31410   8.651   8.098   6.969
 6460SOL    HW131411   8.598   8.139   6.895
 6460SOL    HW231412   8.720   8.163   7.000
 6461SOL     OW31413   2.539   5.335   6.610
 6461SOL    HW131414   2.508   5.297   6.523
 6461SOL    HW231415   2.485   5.417   6.632
 6462SOL     OW31416   2.416   6.899   5.777
 6462SOL    HW131417   2.450   6.879   5.685
 6462SOL    HW231418   2.493   6.912   5.839
 6463SOL     OW31419   8.620   0.958   6.434
 6463SOL    HW131420   8.548   0.924   6.373
 6463SOL    HW231421   8.709   0.942   6.391
 6464SOL     OW31422   6.389   7.767   6.158
 6464SOL    HW131423   6.332   7.821   6.220
 6464SOL    HW231424   6.331   7.700   6.110
 6465SOL     OW31425   3.128   6.075   0.357
 6465SOL    HW131426   3.085   6.129   0.285
 6465SOL    HW231427   3.138   6.131   0.439
 6466SOL     OW31428   4.985   8.264   4.795
 6466SOL    HW131429   4.934   8.181   4.775
 6466SOL    HW231430   5.059   8.274   4.728
 6467SOL     OW31431   4.452   2.910   0.826
 6467SOL    HW131432   4.448   2.992   0.883
 6467SOL    HW231433   4.529   2.918   0.762
 6468SOL     OW31434   0.780   0.089   6.798
 6468SOL    HW131435   0.695   0.038   6.784
 6468SOL    HW231436   0.842   0.036   6.855
 6469SOL     OW31437   8.399   3.163   6.879
 6469SOL    HW131438   8.299   3.165   6.876
 6469SOL    HW231439   8.435   3.188   6.790
 6470SOL     OW31440   3.434   3.552   1.817
 6470SOL    HW131441   3.524   3.570   1.856
 6470SOL    HW231442   3.365   3.602   1.869
 6471SOL     OW31443   4.808   7.066   5.892
 6471SOL    HW131444   4.737   7.084   5.960
 6471SOL    HW231445   4.874   7.001   5.929
 6472SOL     OW31446   5.381   5.726   0.434
 6472SOL    HW131447   5.408   5.731   0.530
 6472SOL    HW231448   5.297   5.778   0.420
 6473SOL     OW31449   9.315   4.012   0.605
 6473SOL    HW131450   9.263   3.960   0.672
 6473SOL    HW231451   9.357   3.949   0.539
 6474SOL     OW31452   3.066   7.834   6.765
 6474SOL    HW131453   3.078   7.932   6.750
 6474SOL    HW231454   3.141   7.800   6.821
 6475SOL     OW31455   3.437   2.618   6.239
 6475SOL    HW131456   3.470   2.555   6.309
 6475SOL    HW231457   3.386   2.567   6.170
 6476SOL     OW31458   0.419   5.229   5.459
 6476SOL    HW131459   0.396   5.240   5.363
 6476SOL    HW231460   0.387   5.140   5.492
 6477SOL     OW31461   3.198   3.149   0.321
 6477SOL    HW131462   3.121   3.087   0.305
 6477SOL    HW231463   3.164   3.242   0.333
 6478SOL     OW31464   1.364   1.819   6.676
 6478SOL    HW131465   1.403   1.759   6.605
 6478SOL    HW231466   1.267   1.800   6.686
 6479SOL     OW31467   5.167   0.267   0.811
 6479SOL    HW131468   5.161   0.300   0.906
 6479SOL    HW231469   5.261   0.244   0.789
 6480SOL     OW31470   2.398   8.312   5.671
 6480SOL    HW131471   2.316   8.314   5.613
 6480SOL    HW231472   2.460   8.386   5.645
 6481SOL     OW31473   2.773   4.514   6.404
 6481SOL    HW131474   2.868   4.482   6.401
 6481SOL    HW231475   2.772   4.612   6.425
 6482SOL     OW31476   6.865   6.973   6.948
 6482SOL    HW131477   6.825   7.026   6.874
 6482SOL    HW231478   6.963   6.989   6.951
 6483SOL     OW31479   1.892   1.950   1.374
 6483SOL    HW131480   1.866   2.046   1.382
 6483SOL    HW231481   1.946   1.923   1.454
 6484SOL     OW31482   2.950   2.102   1.525
 6484SOL    HW131483   2.952   2.180   1.462
 6484SOL    HW231484   2.954   2.017   1.473
 6485SOL     OW31485   4.484   0.261   1.375
 6485SOL    HW131486   4.392   0.290   1.400
 6485SOL    HW231487   4.479   0.188   1.307
 6486SOL     OW31488   3.173   4.376   1.012
 6486SOL    HW131489   3.174   4.280   1.042
 6486SOL    HW231490   3.230   4.386   0.931
 6487SOL     OW31491   2.799   3.317   2.045
 6487SOL    HW131492   2.706   3.307   2.010
 6487SOL    HW231493   2.809   3.405   2.090
 6488SOL     OW31494   7.082   2.354   1.642
 6488SOL    HW131495   7.126   2.441   1.662
 6488SOL    HW231496   6.998   2.370   1.589
 6489SOL     OW31497   0.322   4.580   0.242
 6489SOL    HW131498   0.318   4.509   0.172
 6489SOL    HW231499   0.378   4.656   0.209
 6490SOL     OW31500   5.462   4.517   0.887
 6490SOL    HW131501   5.502   4.468   0.810
 6490SOL    HW231502   5.460   4.615   0.868
 6491SOL     OW31503   9.146   0.085   6.321
 6491SOL    HW131504   9.229   0.029   6.317
 6491SOL    HW231505   9.067   0.025   6.337
 6492SOL     OW31506   8.179   1.782   6.691
 6492SOL    HW131507   8.120   1.801   6.613
 6492SOL    HW231508   8.167   1.687   6.720
 6493SOL     OW31509   3.618   5.908   0.968
 6493SOL    HW131510   3.592   5.950   1.055
 6493SOL    HW231511   3.536   5.891   0.913
 6494SOL     OW31512   2.435   4.184   6.725
 6494SOL    HW131513   2.492   4.239   6.663
 6494SOL    HW231514   2.343   4.224   6.728
 6495SOL     OW31515   2.611   0.647   2.048
 6495SOL    HW131516   2.661   0.611   1.969
 6495SOL    HW231517   2.595   0.573   2.113
 6496SOL     OW31518   5.353   3.136   1.362
 6496SOL    HW131519   5.298   3.113   1.442
 6496SOL    HW231520   5.335   3.069   1.289
 6497SOL     OW31521   3.991   4.327   5.768
 6497SOL    HW131522   4.035   4.239   5.752
 6497SOL    HW231523   3.948   4.359   5.684
 6498SOL     OW31524   4.826   4.402   5.694
 6498SOL    HW131525   4.881   4.352   5.627
 6498SOL    HW231526   4.817   4.347   5.777
 6499SOL     OW31527   7.074   1.971   0.564
 6499SOL    HW131528   6.999   1.940   0.506
 6499SOL    HW231529   7.043   2.047   0.621
 6500SOL     OW31530   7.073   0.119   6.242
 6500SOL    HW131531   7.163   0.108   6.284
 6500SOL    HW231532   7.028   0.029   6.237
 6501SOL     OW31533   4.792   5.393   6.242
 6501SOL    HW131534   4.752   5.331   6.175
 6501SOL    HW231535   4.885   5.364   6.262
 6502SOL     OW31536   8.733   2.088   5.433
 6502SOL    HW131537   8.781   2.120   5.351
 6502SOL    HW231538   8.673   2.011   5.409
 6503SOL     OW31539   3.790   0.775   6.961
 6503SOL    HW131540   3.859   0.815   6.900
 6503SOL    HW231541   3.807   0.676   6.969
 6504SOL     OW31542   3.326   8.019   1.518
 6504SOL    HW131543   3.272   8.080   1.574
 6504SOL    HW231544   3.368   7.948   1.575
 6505SOL     OW31545   8.562   2.077   6.690
 6505SOL    HW131546   8.659   2.060   6.676
 6505SOL    HW231547   8.509   2.029   6.620
 6506SOL     OW31548   5.586   1.877   0.974
 6506SOL    HW131549   5.506   1.928   0.944
 6506SOL    HW231550   5.576   1.781   0.949
 6507SOL     OW31551   5.993   6.074   1.832
 6507SOL    HW131552   6.034   6.027   1.910
 6507SOL    HW231553   5.947   6.158   1.862
 6508SOL     OW31554   8.051   2.072   0.621
 6508SOL    HW131555   8.069   2.094   0.717
 6508SOL    HW231556   7.952   2.072   0.605
 6509SOL     OW31557   4.664   2.552   5.838
 6509SOL    HW131558   4.675   2.526   5.742
 6509SOL    HW231559   4.570   2.533   5.867
 6510SOL     OW31560   5.092   1.228   1.705
 6510SOL    HW131561   5.178   1.222   1.755
 6510SOL    HW231562   5.034   1.297   1.748
 6511SOL     OW31563   5.972   7.970   5.727
 6511SOL    HW131564   6.004   7.974   5.632
 6511SOL    HW231565   6.051   7.959   5.788
 6512SOL     OW31566   8.727   2.877   6.006
 6512SOL    HW131567   8.761   2.954   5.952
 6512SOL    HW231568   8.744   2.895   6.103
 6513SOL     OW31569   8.587   8.038   0.482
 6513SOL    HW131570   8.592   8.079   0.391
 6513SOL    HW231571   8.663   7.974   0.494
 6514SOL     OW31572   1.482   4.323   6.320
 6514SOL    HW131573   1.494   4.244   6.380
 6514SOL    HW231574   1.429   4.296   6.240
 6515SOL     OW31575   5.461   5.630   6.802
 6515SOL    HW131576   5.481   5.728   6.797
 6515SOL    HW231577   5.480   5.596   6.894
 6516SOL     OW31578   8.503   2.453   6.082
 6516SOL    HW131579   8.581   2.509   6.109
 6516SOL    HW231580   8.440   2.508   6.027
 6517SOL     OW31581   0.134   8.231   6.709
 6517SOL    HW131582   0.039   8.207   6.688
 6517SOL    HW231583   0.162   8.185   6.793
 6518SOL     OW31584   0.792   6.786   1.168
 6518SOL    HW131585   0.832   6.877   1.179
 6518SOL    HW231586   0.695   6.795   1.146
 6519SOL     OW31587   6.357   5.992   1.226
 6519SOL    HW131588   6.330   6.042   1.308
 6519SOL    HW231589   6.354   5.893   1.244
 6520SOL     OW31590   3.469   7.723   6.096
 6520SOL    HW131591   3.458   7.725   5.996
 6520SOL    HW231592   3.410   7.652   6.134
 6521SOL     OW31593   7.357   7.394   1.303
 6521SOL    HW131594   7.281   7.402   1.368
 6521SOL    HW231595   7.440   7.369   1.354
 6522SOL     OW31596   4.808   7.403   6.073
 6522SOL    HW131597   4.842   7.496   6.090
 6522SOL    HW231598   4.857   7.365   5.994
 6523SOL     OW31599   4.833   6.293   5.858
 6523SOL    HW131600   4.821   6.195   5.842
 6523SOL    HW231601   4.748   6.341   5.835
 6524SOL     OW31602   4.745   7.532   1.669
 6524SOL    HW131603   4.833   7.578   1.658
 6524SOL    HW231604   4.707   7.554   1.759
 6525SOL     OW31605   7.620   7.324   6.509
 6525SOL    HW131606   7.719   7.328   6.517
 6525SOL    HW231607   7.583   7.265   6.581
 6526SOL     OW31608   0.914   1.098   0.570
 6526SOL    HW131609   0.823   1.130   0.545
 6526SOL    HW231610   0.981   1.132   0.503
 6527SOL     OW31611   8.947   2.739   6.286
 6527SOL    HW131612   8.996   2.688   6.216
 6527SOL    HW231613   8.963   2.697   6.375
 6528SOL     OW31614   1.440   0.505   0.683
 6528SOL    HW131615   1.380   0.507   0.763
 6528SOL    HW231616   1.486   0.593   0.674
 6529SOL     OW31617   9.364   4.699   5.300
 6529SOL    HW131618   9.381   4.797   5.315
 6529SOL    HW231619   9.266   4.684   5.286
 6530SOL     OW31620   0.555   7.168   1.271
 6530SOL    HW131621   0.470   7.198   1.226
 6530SOL    HW231622   0.562   7.069   1.264
 6531SOL     OW31623   5.765   7.552   6.645
 6531SOL    HW131624   5.763   7.589   6.738
 6531SOL    HW231625   5.673   7.525   6.618
 6532SOL     OW31626   2.298   1.464   1.748
 6532SOL    HW131627   2.366   1.445   1.678
 6532SOL    HW231628   2.255   1.553   1.730
 6533SOL     OW31629   4.953   3.548   1.137
 6533SOL    HW131630   4.921   3.592   1.221
 6533SOL    HW231631   5.013   3.472   1.160
 6534SOL     OW31632   3.148   6.336   1.074
 6534SOL    HW131633   3.227   6.378   1.117
 6534SOL    HW231634   3.070   6.399   1.079
 6535SOL     OW31635   8.921   3.543   1.028
 6535SOL    HW131636   8.896   3.447   1.013
 6535SOL    HW231637   8.906   3.595   0.943
 6536SOL     OW31638   3.502   6.917   6.858
 6536SOL    HW131639   3.490   6.978   6.780
 6536SOL    HW231640   3.595   6.927   6.894
 6537SOL     OW31641   8.658   7.048   5.193
 6537SOL    HW131642   8.584   7.006   5.142
 6537SOL    HW231643   8.733   7.070   5.132
 6538SOL     OW31644   8.628   5.132   0.268
 6538SOL    HW131645   8.552   5.196   0.259
 6538SOL    HW231646   8.597   5.052   0.319
 6539SOL     OW31647   0.934   2.687   0.841
 6539SOL    HW131648   0.968   2.722   0.927
 6539SOL    HW231649   0.853   2.739   0.813
 6540SOL     OW31650   6.651   0.955   1.954
 6540SOL    HW131651   6.715   0.880   1.939
 6540SOL    HW231652   6.644   1.011   1.871
 6541SOL     OW31653   1.369   4.745   0.686
 6541SOL    HW131654   1.313   4.662   0.680
 6541SOL    HW231655   1.426   4.752   0.604
 6542SOL     OW31656   6.601   7.817   0.332
 6542SOL    HW131657   6.546   7.734   0.328
 6542SOL    HW231658   6.698   7.793   0.335
 6543SOL     OW31659   5.416   1.842   0.571
 6543SOL    HW131660   5.427   1.941   0.579
 6543SOL    HW231661   5.320   1.820   0.553
 6544SOL     OW31662   7.379   0.867   0.623
 6544SOL    HW131663   7.467   0.851   0.668
 6544SOL    HW231664   7.345   0.958   0.647
 6545SOL     OW31665   1.018   5.770   5.830
 6545SOL    HW131666   0.932   5.719   5.825
 6545SOL    HW231667   0.997   5.867   5.845
 6546SOL     OW31668   8.393   0.723   5.564
 6546SOL    HW131669   8.436   0.633   5.560
 6546SOL    HW231670   8.422   0.776   5.484
 6547SOL     OW31671   6.207   3.635   6.949
 6547SOL    HW131672   6.301   3.648   6.916
 6547SOL    HW231673   6.174   3.545   6.920
 6548SOL     OW31674   2.281   7.786   1.138
 6548SOL    HW131675   2.257   7.798   1.234
 6548SOL    HW231676   2.217   7.836   1.081
 6549SOL     OW31677   4.302   7.596   5.938
 6549SOL    HW131678   4.216   7.644   5.955
 6549SOL    HW231679   4.311   7.575   5.841
 6550SOL     OW31680   2.730   6.261   6.535
 6550SOL    HW131681   2.737   6.359   6.558
 6550SOL    HW231682   2.704   6.251   6.439
 6551SOL     OW31683   9.043   1.453   6.679
 6551SOL    HW131684   9.058   1.365   6.723
 6551SOL    HW231685   8.944   1.471   6.673
 6552SOL     OW31686   8.696   1.149   0.508
 6552SOL    HW131687   8.600   1.139   0.483
 6552SOL    HW231688   8.740   1.214   0.447
 6553SOL     OW31689   7.483   2.664   0.861
 6553SOL    HW131690   7.433   2.696   0.942
 6553SOL    HW231691   7.580   2.655   0.884
 6554SOL     OW31692   6.480   6.878   5.365
 6554SOL    HW131693   6.515   6.786   5.346
 6554SOL    HW231694   6.444   6.882   5.458
 6555SOL     OW31695   4.122   5.733   5.434
 6555SOL    HW131696   4.167   5.810   5.479
 6555SOL    HW231697   4.088   5.762   5.344
 6556SOL     OW31698   8.449   4.186   0.791
 6556SOL    HW131699   8.407   4.123   0.856
 6556SOL    HW231700   8.480   4.135   0.710
 6557SOL     OW31701   4.965   5.802   2.054
 6557SOL    HW131702   4.968   5.867   1.978
 6557SOL    HW231703   5.044   5.741   2.050
 6558SOL     OW31704   3.973   8.013   1.485
 6558SOL    HW131705   3.987   8.110   1.504
 6558SOL    HW231706   4.050   7.960   1.518
 6559SOL     OW31707   5.272   7.045   0.921
 6559SOL    HW131708   5.219   7.129   0.934
 6559SOL    HW231709   5.346   7.062   0.855
 6560SOL     OW31710   8.906   5.952   0.661
 6560SOL    HW131711   8.827   5.901   0.626
 6560SOL    HW231712   8.928   5.921   0.753
 6561SOL     OW31713   7.752   4.053   1.481
 6561SOL    HW131714   7.697   4.124   1.524
 6561SOL    HW231715   7.837   4.039   1.533
 6562SOL     OW31716   2.244   2.449   0.991
 6562SOL    HW131717   2.316   2.443   1.060
 6562SOL    HW231718   2.272   2.513   0.919
 6563SOL     OW31719   8.436   1.052   0.482
 6563SOL    HW131720   8.475   0.960   0.477
 6563SOL    HW231721   8.374   1.058   0.560
 6564SOL     OW31722   8.198   4.387   0.908
 6564SOL    HW131723   8.183   4.341   0.821
 6564SOL    HW231724   8.291   4.422   0.912
 6565SOL     OW31725   9.001   7.792   1.221
 6565SOL    HW131726   9.095   7.760   1.211
 6565SOL    HW231727   8.937   7.716   1.211
 6566SOL     OW31728   5.095   3.611   1.729
 6566SOL    HW131729   5.056   3.597   1.638
 6566SOL    HW231730   5.021   3.609   1.797
 6567SOL     OW31731   3.099   8.224   0.304
 6567SOL    HW131732   3.127   8.206   0.398
 6567SOL    HW231733   3.093   8.138   0.254
 6568SOL     OW31734   9.470   8.133   6.202
 6568SOL    HW131735   9.499   8.228   6.214
 6568SOL    HW231736   9.447   8.117   6.106
 6569SOL     OW31737   5.181   5.691   1.599
 6569SOL    HW131738   5.090   5.725   1.621
 6569SOL    HW231739   5.243   5.709   1.675
 6570SOL     OW31740   3.759   1.645   1.175
 6570SOL    HW131741   3.665   1.664   1.148
 6570SOL    HW231742   3.762   1.564   1.234
 6571SOL     OW31743   6.372   2.760   0.717
 6571SOL    HW131744   6.390   2.752   0.815
 6571SOL    HW231745   6.317   2.842   0.701
 6572SOL     OW31746   6.169   0.149   0.763
 6572SOL    HW131747   6.137   0.201   0.683
 6572SOL    HW231748   6.156   0.051   0.746
 6573SOL     OW31749   7.856   4.300   5.346
 6573SOL    HW131750   7.907   4.230   5.296
 6573SOL    HW231751   7.833   4.375   5.284
 6574SOL     OW31752   4.412   0.641   2.117
 6574SOL    HW131753   4.343   0.627   2.188
 6574SOL    HW231754   4.497   0.671   2.159
 6575SOL     OW31755   6.884   6.905   1.235
 6575SOL    HW131756   6.801   6.860   1.269
 6575SOL    HW231757   6.927   6.847   1.167
 6576SOL     OW31758   7.614   1.156   0.791
 6576SOL    HW131759   7.662   1.185   0.874
 6576SOL    HW231760   7.651   1.206   0.713
 6577SOL     OW31761   6.773   3.022   6.173
 6577SOL    HW131762   6.851   2.960   6.161
 6577SOL    HW231763   6.689   2.974   6.147
 6578SOL     OW31764   3.758   2.854   0.974
 6578SOL    HW131765   3.662   2.879   0.964
 6578SOL    HW231766   3.810   2.892   0.898
 6579SOL     OW31767   5.521   1.218   0.786
 6579SOL    HW131768   5.480   1.256   0.703
 6579SOL    HW231769   5.555   1.292   0.843
 6580SOL     OW31770   6.173   7.057   6.435
 6580SOL    HW131771   6.139   7.146   6.467
 6580SOL    HW231772   6.187   6.997   6.513
 6581SOL     OW31773   9.438   8.093   0.786
 6581SOL    HW131774   9.455   8.007   0.835
 6581SOL    HW231775   9.481   8.169   0.836
 6582SOL     OW31776   2.313   3.113   5.763
 6582SOL    HW131777   2.312   3.183   5.835
 6582SOL    HW231778   2.406   3.077   5.754
 6583SOL     OW31779   6.547   2.816   1.897
 6583SOL    HW131780   6.450   2.827   1.914
 6583SOL    HW231781   6.583   2.743   1.956
 6584SOL     OW31782   1.794   0.255   6.511
 6584SOL    HW131783   1.767   0.347   6.484
 6584SOL    HW231784   1.720   0.191   6.492
 6585SOL     OW31785   2.920   3.534   1.391
 6585SOL    HW131786   2.880   3.497   1.307
 6585SOL    HW231787   2.858   3.600   1.432
 6586SOL     OW31788   5.532  -0.040   0.749
 6586SOL    HW131789   5.452  -0.095   0.729
 6586SOL    HW231790   5.504   0.050   0.782
 6587SOL     OW31791   1.237   2.502   6.924
 6587SOL    HW131792   1.275   2.445   6.998
 6587SOL    HW231793   1.262   2.598   6.940
 6588SOL     OW31794   9.307   3.393   0.405
 6588SOL    HW131795   9.344   3.301   0.397
 6588SOL    HW231796   9.306   3.421   0.501
 6589SOL     OW31797   8.260   0.411   6.487
 6589SOL    HW131798   8.254   0.496   6.539
 6589SOL    HW231799   8.354   0.396   6.458
 6590SOL     OW31800   5.299   7.596   6.594
 6590SOL    HW131801   5.314   7.599   6.692
 6590SOL    HW231802   5.247   7.514   6.570
 6591SOL     OW31803   3.000   0.886   0.297
 6591SOL    HW131804   3.001   0.840   0.386
 6591SOL    HW231805   2.911   0.929   0.282
 6592SOL     OW31806   3.870   1.970   6.786
 6592SOL    HW131807   3.907   1.935   6.700
 6592SOL    HW231808   3.932   2.039   6.823
 6593SOL     OW31809   8.630   4.670   6.525
 6593SOL    HW131810   8.708   4.722   6.558
 6593SOL    HW231811   8.551   4.686   6.584
 6594SOL     OW31812   6.681   6.667   0.586
 6594SOL    HW131813   6.658   6.742   0.523
 6594SOL    HW231814   6.780   6.664   0.600
 6595SOL     OW31815   5.636   1.048   0.988
 6595SOL    HW131816   5.725   1.037   0.944
 6595SOL    HW231817   5.580   1.112   0.935
 6596SOL     OW31818   5.615   4.242   6.478
 6596SOL    HW131819   5.677   4.308   6.434
 6596SOL    HW231820   5.543   4.216   6.413
 6597SOL     OW31821   2.600   3.751   0.428
 6597SOL    HW131822   2.645   3.777   0.342
 6597SOL    HW231823   2.584   3.652   0.428
 6598SOL     OW31824   3.826   0.556   6.271
 6598SOL    HW131825   3.825   0.642   6.321
 6598SOL    HW231826   3.885   0.491   6.318
 6599SOL     OW31827   5.964   7.347   6.696
 6599SOL    HW131828   5.957   7.264   6.750
 6599SOL    HW231829   5.873   7.389   6.687
 6600SOL     OW31830   0.889   3.866   0.355
 6600SOL    HW131831   0.946   3.811   0.295
 6600SOL    HW231832   0.868   3.953   0.310
 6601SOL     OW31833   5.906   1.265   5.959
 6601SOL    HW131834   5.955   1.214   5.888
 6601SOL    HW231835   5.838   1.325   5.916
 6602SOL     OW31836   4.105   0.082   5.298
 6602SOL    HW131837   4.057  -0.006   5.293
 6602SOL    HW231838   4.098   0.129   5.209
 6603SOL     OW31839   4.259   0.428   1.033
 6603SOL    HW131840   4.189   0.431   1.105
 6603SOL    HW231841   4.290   0.334   1.021
 6604SOL     OW31842   8.739   1.308   5.145
 6604SOL    HW131843   8.799   1.384   5.169
 6604SOL    HW231844   8.696   1.326   5.056
 6605SOL     OW31845   7.572   1.472   1.318
 6605SOL    HW131846   7.488   1.493   1.267
 6605SOL    HW231847   7.581   1.373   1.329
 6606SOL     OW31848   4.895   3.389   6.073
 6606SOL    HW131849   4.880   3.326   5.996
 6606SOL    HW231850   4.993   3.401   6.086
 6607SOL     OW31851   6.068   4.708   6.869
 6607SOL    HW131852   6.093   4.753   6.955
 6607SOL    HW231853   6.070   4.609   6.881
 6608SOL     OW31854   5.284   1.154   6.476
 6608SOL    HW131855   5.258   1.108   6.391
 6608SOL    HW231856   5.253   1.101   6.554
 6609SOL     OW31857   9.504   5.822   5.527
 6609SOL    HW131858   9.575   5.848   5.463
 6609SOL    HW231859   9.432   5.892   5.527
 6610SOL     OW31860   4.339   3.856   6.470
 6610SOL    HW131861   4.307   3.855   6.375
 6610SOL    HW231862   4.395   3.937   6.485
 6611SOL     OW31863   2.014   7.505   1.226
 6611SOL    HW131864   1.983   7.412   1.245
 6611SOL    HW231865   2.093   7.526   1.284
 6612SOL     OW31866   5.295   2.855   1.314
 6612SOL    HW131867   5.319   2.758   1.303
 6612SOL    HW231868   5.197   2.863   1.331
 6613SOL     OW31869   8.084   7.713   1.312
 6613SOL    HW131870   8.072   7.731   1.409
 6613SOL    HW231871   8.063   7.617   1.293
 6614SOL     OW31872   2.447   0.658   6.662
 6614SOL    HW131873   2.442   0.636   6.759
 6614SOL    HW231874   2.415   0.579   6.609
 6615SOL     OW31875   4.701   3.949   6.386
 6615SOL    HW131876   4.778   3.910   6.436
 6615SOL    HW231877   4.634   3.986   6.451
 6616SOL     OW31878   9.558   5.763   5.961
 6616SOL    HW131879   9.555   5.701   6.040
 6616SOL    HW231880   9.542   5.711   5.877
 6617SOL     OW31881   3.559   0.870   5.632
 6617SOL    HW131882   3.486   0.923   5.675
 6617SOL    HW231883   3.539   0.860   5.534
 6618SOL     OW31884   6.903   8.155   0.282
 6618SOL    HW131885   6.884   8.127   0.376
 6618SOL    HW231886   6.825   8.206   0.246
 6619SOL     OW31887   5.950   2.652   6.040
 6619SOL    HW131888   5.999   2.673   5.955
 6619SOL    HW231889   5.899   2.732   6.070
 6620SOL     OW31890   7.924   6.128   0.763
 6620SOL    HW131891   7.881   6.141   0.673
 6620SOL    HW231892   7.854   6.134   0.834
 6621SOL     OW31893   4.190   6.031   0.639
 6621SOL    HW131894   4.153   6.099   0.576
 6621SOL    HW231895   4.166   5.939   0.607
 6622SOL     OW31896   9.273   5.341   6.956
 6622SOL    HW131897   9.262   5.439   6.943
 6622SOL    HW231898   9.183   5.297   6.957
 6623SOL     OW31899   4.713   2.245   6.954
 6623SOL    HW131900   4.706   2.312   7.028
 6623SOL    HW231901   4.769   2.168   6.985
 6624SOL     OW31902   6.219   2.759   6.730
 6624SOL    HW131903   6.150   2.808   6.678
 6624SOL    HW231904   6.176   2.687   6.784
 6625SOL     OW31905   8.263   1.888   1.772
 6625SOL    HW131906   8.351   1.910   1.814
 6625SOL    HW231907   8.278   1.841   1.685
 6626SOL     OW31908   3.453   0.444   6.318
 6626SOL    HW131909   3.457   0.431   6.418
 6626SOL    HW231910   3.485   0.535   6.294
 6627SOL     OW31911   1.576   6.604   6.328
 6627SOL    HW131912   1.517   6.549   6.387
 6627SOL    HW231913   1.668   6.563   6.326
 6628SOL     OW31914   4.527   5.757   1.640
 6628SOL    HW131915   4.592   5.768   1.565
 6628SOL    HW231916   4.468   5.678   1.622
 6629SOL     OW31917   4.177   2.595   6.064
 6629SOL    HW131918   4.189   2.694   6.062
 6629SOL    HW231919   4.087   2.573   6.101
 6630SOL     OW31920   0.687  -0.021   1.033
 6630SOL    HW131921   0.607  -0.076   1.008
 6630SOL    HW231922   0.657   0.068   1.067
 6631SOL     OW31923   2.666   6.734   4.996
 6631SOL    HW131924   2.765   6.729   4.985
 6631SOL    HW231925   2.624   6.756   4.908
 6632SOL     OW31926   3.180   2.396   1.447
 6632SOL    HW131927   3.105   2.418   1.510
 6632SOL    HW231928   3.153   2.417   1.353
 6633SOL     OW31929   4.477   1.896   0.750
 6633SOL    HW131930   4.380   1.873   0.753
 6633SOL    HW231931   4.530   1.827   0.799
 6634SOL     OW31932   2.885   6.623   0.526
 6634SOL    HW131933   2.930   6.655   0.609
 6634SOL    HW231934   2.796   6.582   0.550
 6635SOL     OW31935   2.378   6.498   5.822
 6635SOL    HW131936   2.299   6.518   5.764
 6635SOL    HW231937   2.351   6.504   5.918
 6636SOL     OW31938   2.167   5.314   5.987
 6636SOL    HW131939   2.246   5.368   5.961
 6636SOL    HW231940   2.116   5.286   5.905
 6637SOL     OW31941   5.802   2.406   1.111
 6637SOL    HW131942   5.725   2.364   1.064
 6637SOL    HW231943   5.881   2.344   1.109
 6638SOL     OW31944   7.359   2.040   0.734
 6638SOL    HW131945   7.426   2.101   0.691
 6638SOL    HW231946   7.360   1.952   0.688
 6639SOL     OW31947   9.360   1.464   0.896
 6639SOL    HW131948   9.323   1.546   0.852
 6639SOL    HW231949   9.353   1.473   0.995
 6640SOL     OW31950   4.501   7.953   2.279
 6640SOL    HW131951   4.542   8.031   2.327
 6640SOL    HW231952   4.412   7.933   2.319
 6641SOL     OW31953   9.277   3.366   1.345
 6641SOL    HW131954   9.232   3.277   1.345
 6641SOL    HW231955   9.285   3.400   1.439
 6642SOL     OW31956   0.338   5.756   4.706
 6642SOL    HW131957   0.276   5.807   4.765
 6642SOL    HW231958   0.308   5.661   4.699
 6643SOL     OW31959   0.228   8.366   5.896
 6643SOL    HW131960   0.275   8.440   5.944
 6643SOL    HW231961   0.256   8.366   5.800
 6644SOL     OW31962   4.551   1.090   0.995
 6644SOL    HW131963   4.603   1.030   1.054
 6644SOL    HW231964   4.462   1.049   0.975
 6645SOL     OW31965   1.878   4.003   5.301
 6645SOL    HW131966   1.943   3.927   5.309
 6645SOL    HW231967   1.844   4.007   5.207
 6646SOL     OW31968   6.562   5.603   6.676
 6646SOL    HW131969   6.471   5.642   6.692
 6646SOL    HW231970   6.570   5.574   6.581
 6647SOL     OW31971   4.727   6.361   1.500
 6647SOL    HW131972   4.748   6.360   1.403
 6647SOL    HW231973   4.786   6.427   1.547
 6648SOL     OW31974   8.949   1.254   1.080
 6648SOL    HW131975   8.998   1.169   1.061
 6648SOL    HW231976   8.933   1.261   1.178
 6649SOL     OW31977   5.934   4.165   6.971
 6649SOL    HW131978   5.851   4.188   6.920
 6649SOL    HW231979   6.013   4.170   6.910
 6650SOL     OW31980   1.424   6.369   5.894
 6650SOL    HW131981   1.438   6.467   5.908
 6650SOL    HW231982   1.428   6.321   5.981
 6651SOL     OW31983   6.703   5.899   0.274
 6651SOL    HW131984   6.757   5.816   0.256
 6651SOL    HW231985   6.632   5.878   0.341
 6652SOL     OW31986   2.276  -0.053   0.550
 6652SOL    HW131987   2.184  -0.076   0.517
 6652SOL    HW231988   2.282  -0.067   0.648
 6653SOL     OW31989   6.342   3.267   6.901
 6653SOL    HW131990   6.384   3.314   6.824
 6653SOL    HW231991   6.346   3.325   6.982
 6654SOL     OW31992   1.100   3.040   5.676
 6654SOL    HW131993   1.199   3.045   5.687
 6654SOL    HW231994   1.078   3.034   5.579
 6655SOL     OW31995   0.740   6.174   6.650
 6655SOL    HW131996   0.672   6.210   6.587
 6655SOL    HW231997   0.767   6.246   6.715
 6656SOL     OW31998   5.606   0.225   1.710
 6656SOL    HW131999   5.574   0.300   1.651
 6656SOL    HW232000   5.687   0.183   1.669
 6657SOL     OW32001   4.271   7.516   1.259
 6657SOL    HW132002   4.282   7.457   1.340
 6657SOL    HW232003   4.174   7.537   1.246
 6658SOL     OW32004   6.367   0.484   1.050
 6658SOL    HW132005   6.310   0.404   1.066
 6658SOL    HW232006   6.310   0.566   1.046
 6659SOL     OW32007   3.068   8.301   1.566
 6659SOL    HW132008   2.997   8.312   1.636
 6659SOL    HW232009   3.096   8.391   1.534
 6660SOL     OW32010   4.408   8.099   5.383
 6660SOL    HW132011   4.451   8.022   5.334
 6660SOL    HW232012   4.324   8.126   5.336
 6661SOL     OW32013   4.091  -0.052   0.356
 6661SOL    HW132014   4.046  -0.132   0.395
 6661SOL    HW232015   4.187  -0.072   0.338
 6662SOL     OW32016   4.469   6.839   0.419
 6662SOL    HW132017   4.377   6.878   0.408
 6662SOL    HW232018   4.519   6.847   0.333
 6663SOL     OW32019   7.196   8.047   0.555
 6663SOL    HW132020   7.244   7.978   0.610
 6663SOL    HW232021   7.185   8.014   0.462
 6664SOL     OW32022   8.063   7.599   0.944
 6664SOL    HW132023   8.029   7.666   0.878
 6664SOL    HW232024   8.162   7.592   0.936
 6665SOL     OW32025   8.133   5.900   6.322
 6665SOL    HW132026   8.057   5.949   6.364
 6665SOL    HW232027   8.142   5.927   6.226
 6666SOL     OW32028   2.678   7.887   5.394
 6666SOL    HW132029   2.771   7.907   5.362
 6666SOL    HW232030   2.619   7.871   5.315
 6667SOL     OW32031   2.218   3.786   0.794
 6667SOL    HW132032   2.137   3.843   0.811
 6667SOL    HW232033   2.190   3.691   0.783
 6668SOL     OW32034   7.236  -0.003   1.029
 6668SOL    HW132035   7.162   0.030   1.087
 6668SOL    HW232036   7.322  -0.001   1.080
 6669SOL     OW32037   2.206   7.241   5.944
 6669SOL    HW132038   2.246   7.220   5.855
 6669SOL    HW232039   2.111   7.211   5.947
 6670SOL     OW32040   9.447   8.419   1.701
 6670SOL    HW132041   9.476   8.512   1.725
 6670SOL    HW232042   9.498   8.353   1.756
 6671SOL     OW32043   2.581   7.002   0.891
 6671SOL    HW132044   2.528   7.064   0.949
 6671SOL    HW232045   2.613   7.052   0.810
 6672SOL     OW32046   7.376   8.397   1.495
 6672SOL    HW132047   7.385   8.472   1.560
 6672SOL    HW232048   7.428   8.318   1.528
 6673SOL     OW32049   8.270   5.935   0.377
 6673SOL    HW132050   8.356   5.986   0.367
 6673SOL    HW232051   8.209   5.985   0.438
 6674SOL     OW32052   1.797   2.044   6.329
 6674SOL    HW132053   1.768   2.127   6.281
 6674SOL    HW232054   1.812   1.971   6.264
 6675SOL     OW32055   1.973   3.337   0.239
 6675SOL    HW132056   2.062   3.298   0.262
 6675SOL    HW232057   1.982   3.435   0.226
 6676SOL     OW32058   6.819   6.105   4.957
 6676SOL    HW132059   6.857   6.063   5.039
 6676SOL    HW232060   6.767   6.036   4.906
 6677SOL     OW32061   8.593   4.472   1.233
 6677SOL    HW132062   8.572   4.398   1.169
 6677SOL    HW232063   8.605   4.434   1.325
 6678SOL     OW32064   6.159   0.046   6.309
 6678SOL    HW132065   6.088   0.116   6.301
 6678SOL    HW232066   6.217   0.049   6.227
 6679SOL     OW32067   5.868   4.871   1.786
 6679SOL    HW132068   5.778   4.873   1.829
 6679SOL    HW232069   5.931   4.929   1.837
 6680SOL     OW32070   6.022   3.425   6.799
 6680SOL    HW132071   6.030   3.439   6.701
 6680SOL    HW232072   6.014   3.327   6.819
 6681SOL     OW32073   4.434   6.895   6.561
 6681SOL    HW132074   4.489   6.930   6.485
 6681SOL    HW232075   4.463   6.802   6.583
 6682SOL     OW32076   4.964   0.196   0.639
 6682SOL    HW132077   5.048   0.238   0.675
 6682SOL    HW232078   4.903   0.172   0.715
 6683SOL     OW32079   3.034   1.717   1.106
 6683SOL    HW132080   3.079   1.710   1.195
 6683SOL    HW232081   2.940   1.748   1.119
 6684SOL     OW32082   0.787   5.310   0.241
 6684SOL    HW132083   0.818   5.406   0.237
 6684SOL    HW232084   0.749   5.283   0.153
 6685SOL     OW32085   8.782   0.327   6.771
 6685SOL    HW132086   8.692   0.295   6.742
 6685SOL    HW232087   8.835   0.354   6.691
 6686SOL     OW32088   1.446   3.567   6.406
 6686SOL    HW132089   1.370   3.532   6.352
 6686SOL    HW232090   1.530   3.563   6.352
 6687SOL     OW32091   8.574   2.045   0.376
 6687SOL    HW132092   8.503   2.071   0.442
 6687SOL    HW232093   8.633   2.124   0.358
 6688SOL     OW32094   8.392   0.866   5.800
 6688SOL    HW132095   8.394   0.957   5.758
 6688SOL    HW232096   8.381   0.797   5.729
 6689SOL     OW32097   7.572   7.655   0.740
 6689SOL    HW132098   7.571   7.706   0.826
 6689SOL    HW232099   7.598   7.560   0.758
 6690SOL     OW32100   8.768   2.093   1.088
 6690SOL    HW132101   8.761   2.193   1.095
 6690SOL    HW232102   8.817   2.058   1.167
 6691SOL     OW32103   4.304   5.240   6.710
 6691SOL    HW132104   4.220   5.244   6.654
 6691SOL    HW232105   4.356   5.324   6.697
 6692SOL     OW32106   8.829   8.052   5.999
 6692SOL    HW132107   8.745   8.106   5.988
 6692SOL    HW232108   8.820   7.967   5.947
 6693SOL     OW32109   4.464   4.969   6.511
 6693SOL    HW132110   4.479   4.997   6.606
 6693SOL    HW232111   4.366   4.961   6.494
 6694SOL     OW32112   9.310   7.507   6.640
 6694SOL    HW132113   9.308   7.569   6.718
 6694SOL    HW232114   9.277   7.555   6.558
 6695SOL     OW32115   2.773   2.531   1.473
 6695SOL    HW132116   2.686   2.508   1.429
 6695SOL    HW232117   2.776   2.488   1.564
 6696SOL     OW32118   4.291   1.593   2.125
 6696SOL    HW132119   4.370   1.532   2.133
 6696SOL    HW232120   4.207   1.540   2.131
 6697SOL     OW32121   4.928   8.431   0.250
 6697SOL    HW132122   5.014   8.474   0.276
 6697SOL    HW232123   4.866   8.499   0.213
 6698SOL     OW32124   2.242   3.240   0.283
 6698SOL    HW132125   2.275   3.157   0.328
 6698SOL    HW232126   2.247   3.229   0.184
 6699SOL     OW32127   8.054   1.749   0.272
 6699SOL    HW132128   8.112   1.670   0.289
 6699SOL    HW232129   8.046   1.804   0.355
 6700SOL     OW32130   0.762   1.730   0.944
 6700SOL    HW132131   0.748   1.751   1.041
 6700SOL    HW232132   0.848   1.771   0.913
 6701SOL     OW32133   4.204   0.284   1.453
 6701SOL    HW132134   4.106   0.275   1.470
 6701SOL    HW232135   4.252   0.301   1.539
 6702SOL     OW32136   2.261   0.254   5.316
 6702SOL    HW132137   2.274   0.306   5.231
 6702SOL    HW232138   2.194   0.182   5.301
 6703SOL     OW32139   1.330   0.195   0.611
 6703SOL    HW132140   1.297   0.120   0.668
 6703SOL    HW232141   1.315   0.282   0.658
 6704SOL     OW32142   2.801   0.743   5.790
 6704SOL    HW132143   2.755   0.828   5.763
 6704SOL    HW232144   2.755   0.665   5.749
 6705SOL     OW32145   0.936   8.410   0.718
 6705SOL    HW132146   0.983   8.468   0.652
 6705SOL    HW232147   0.992   8.329   0.737
 6706SOL     OW32148   3.212   0.724   1.455
 6706SOL    HW132149   3.244   0.634   1.428
 6706SOL    HW232150   3.121   0.740   1.417
 6707SOL     OW32151   2.139   7.251   6.388
 6707SOL    HW132152   2.187   7.208   6.464
 6707SOL    HW232153   2.103   7.340   6.418
 6708SOL     OW32154   8.300   2.056   0.463
 6708SOL    HW132155   8.213   2.046   0.511
 6708SOL    HW232156   8.288   2.027   0.367
 6709SOL     OW32157   0.463   4.427   1.699
 6709SOL    HW132158   0.441   4.523   1.684
 6709SOL    HW232159   0.411   4.392   1.776
 6710SOL     OW32160   2.401   5.791   1.642
 6710SOL    HW132161   2.361   5.703   1.669
 6710SOL    HW232162   2.501   5.782   1.638
 6711SOL     OW32163   4.322   4.283   1.713
 6711SOL    HW132164   4.328   4.381   1.699
 6711SOL    HW232165   4.289   4.264   1.806
 6712SOL     OW32166   1.349   6.588   1.397
 6712SOL    HW132167   1.337   6.590   1.298
 6712SOL    HW232168   1.323   6.676   1.436
 6713SOL     OW32169   6.052   7.047   5.622
 6713SOL    HW132170   6.136   7.059   5.675
 6713SOL    HW232171   6.014   6.956   5.640
 6714SOL     OW32172   1.546   3.968   6.126
 6714SOL    HW132173   1.643   3.945   6.132
 6714SOL    HW232174   1.533   4.039   6.056
 6715SOL     OW32175   7.453   6.062   6.551
 6715SOL    HW132176   7.463   6.155   6.515
 6715SOL    HW232177   7.356   6.038   6.555
 6716SOL     OW32178   1.380   5.626   0.526
 6716SOL    HW132179   1.338   5.635   0.436
 6716SOL    HW232180   1.331   5.683   0.591
 6717SOL     OW32181   8.485   6.010   0.585
 6717SOL    HW132182   8.398   6.061   0.589
 6717SOL    HW232183   8.521   5.998   0.677
 6718SOL     OW32184   4.167   2.813   1.914
 6718SOL    HW132185   4.220   2.837   1.995
 6718SOL    HW232186   4.101   2.742   1.938
 6719SOL     OW32187   7.396   3.410   2.088
 6719SOL    HW132188   7.367   3.470   2.162
 6719SOL    HW232189   7.326   3.407   2.018
 6720SOL     OW32190   7.803   8.395   6.245
 6720SOL    HW132191   7.765   8.485   6.264
 6720SOL    HW232192   7.852   8.397   6.158
 6721SOL     OW32193   5.057   6.876   6.024
 6721SOL    HW132194   5.101   6.794   5.988
 6721SOL    HW232195   4.973   6.849   6.073
 6722SOL     OW32196   2.213   1.971   0.910
 6722SOL    HW132197   2.281   1.899   0.916
 6722SOL    HW232198   2.128   1.941   0.954
 6723SOL     OW32199   4.574   3.417   6.562
 6723SOL    HW132200   4.652   3.475   6.586
 6723SOL    HW232201   4.548   3.434   6.467
 6724SOL     OW32202   1.346   3.817   6.246
 6724SOL    HW132203   1.423   3.876   6.221
 6724SOL    HW232204   1.376   3.749   6.312
 6725SOL     OW32205   9.122   4.701   6.232
 6725SOL    HW132206   9.216   4.692   6.266
 6725SOL    HW232207   9.108   4.639   6.155
 6726SOL     OW32208   1.577   1.434   0.839
 6726SOL    HW132209   1.608   1.392   0.754
 6726SOL    HW232210   1.492   1.390   0.869
 6727SOL     OW32211   8.443   1.950   5.674
 6727SOL    HW132212   8.394   1.866   5.695
 6727SOL    HW232213   8.467   1.952   5.577
 6728SOL     OW32214   5.621   3.193   5.995
 6728SOL    HW132215   5.558   3.246   6.051
 6728SOL    HW232216   5.571   3.151   5.919
 6729SOL     OW32217   8.490   7.771   0.338
 6729SOL    HW132218   8.551   7.766   0.417
 6729SOL    HW232219   8.535   7.820   0.264
 6730SOL     OW32220   4.765   5.333   6.647
 6730SOL    HW132221   4.730   5.253   6.599
 6730SOL    HW232222   4.864   5.337   6.640
 6731SOL     OW32223   3.261   6.135   5.720
 6731SOL    HW132224   3.274   6.100   5.627
 6731SOL    HW232225   3.291   6.065   5.786
 6732SOL     OW32226   7.760   3.139   6.004
 6732SOL    HW132227   7.727   3.228   6.036
 6732SOL    HW232228   7.846   3.152   5.955
 6733SOL     OW32229   6.996   8.103   0.815
 6733SOL    HW132230   7.094   8.104   0.835
 6733SOL    HW232231   6.951   8.034   0.872
 6734SOL     OW32232   4.594   0.541   5.752
 6734SOL    HW132233   4.547   0.530   5.665
 6734SOL    HW232234   4.531   0.577   5.820
 6735SOL     OW32235   3.581   7.738   5.195
 6735SOL    HW132236   3.591   7.646   5.234
 6735SOL    HW232237   3.657   7.756   5.133
 6736SOL     OW32238   6.121   5.573   0.683
 6736SOL    HW132239   6.192   5.643   0.689
 6736SOL    HW232240   6.116   5.523   0.769
 6737SOL     OW32241   0.842   1.769   6.354
 6737SOL    HW132242   0.796   1.843   6.404
 6737SOL    HW232243   0.885   1.806   6.272
 6738SOL     OW32244   7.984   2.684   0.902
 6738SOL    HW132245   8.037   2.604   0.930
 6738SOL    HW232246   8.028   2.727   0.823
 6739SOL     OW32247   5.924   3.728   0.241
 6739SOL    HW132248   5.896   3.666   0.314
 6739SOL    HW232249   5.999   3.686   0.190
 6740SOL     OW32250   5.272   1.337   5.059
 6740SOL    HW132251   5.269   1.417   4.999
 6740SOL    HW232252   5.184   1.289   5.055
 6741SOL     OW32253   1.382   5.349   0.431
 6741SOL    HW132254   1.365   5.441   0.396
 6741SOL    HW232255   1.349   5.343   0.525
 6742SOL     OW32256   5.931   3.241   0.600
 6742SOL    HW132257   5.920   3.256   0.502
 6742SOL    HW232258   5.861   3.177   0.632
 6743SOL     OW32259   3.575   7.876   0.962
 6743SOL    HW132260   3.643   7.854   1.032
 6743SOL    HW232261   3.495   7.917   1.004
 6744SOL     OW32262   0.504   3.175   0.964
 6744SOL    HW132263   0.505   3.267   1.003
 6744SOL    HW232264   0.469   3.111   1.031
 6745SOL     OW32265   2.029   2.720   0.507
 6745SOL    HW132266   2.026   2.704   0.606
 6745SOL    HW232267   1.996   2.638   0.459
 6746SOL     OW32268   7.495   7.774   5.492
 6746SOL    HW132269   7.433   7.779   5.413
 6746SOL    HW232270   7.441   7.761   5.575
 6747SOL     OW32271   1.943   7.152   5.910
 6747SOL    HW132272   1.896   7.235   5.880
 6747SOL    HW232273   1.876   7.079   5.923
 6748SOL     OW32274   3.339   7.800   5.286
 6748SOL    HW132275   3.434   7.784   5.260
 6748SOL    HW232276   3.336   7.863   5.364
 6749SOL     OW32277   4.539   1.445   2.214
 6749SOL    HW132278   4.551   1.346   2.219
 6749SOL    HW232279   4.629   1.489   2.213
 6750SOL     OW32280   8.680   0.286   1.263
 6750SOL    HW132281   8.763   0.239   1.292
 6750SOL    HW232282   8.622   0.303   1.343
 6751SOL     OW32283   9.350  -0.061   6.414
 6751SOL    HW132284   9.448  -0.079   6.411
 6751SOL    HW232285   9.332   0.016   6.475
 6752SOL     OW32286   8.919   5.914   4.708
 6752SOL    HW132287   8.875   5.948   4.625
 6752SOL    HW232288   8.901   5.977   4.783
 6753SOL     OW32289   9.451   6.307   1.571
 6753SOL    HW132290   9.362   6.273   1.538
 6753SOL    HW232291   9.522   6.239   1.553
 6754SOL     OW32292   1.768   5.250   6.818
 6754SOL    HW132293   1.728   5.249   6.909
 6754SOL    HW232294   1.739   5.332   6.769
 6755SOL     OW32295   9.298   3.515   2.021
 6755SOL    HW132296   9.291   3.482   2.115
 6755SOL    HW232297   9.221   3.481   1.968
 6756SOL     OW32298   8.399   2.316   0.562
 6756SOL    HW132299   8.366   2.224   0.538
 6756SOL    HW232300   8.352   2.384   0.506
 6757SOL     OW32301   7.833   7.594   1.076
 6757SOL    HW132302   7.923   7.593   1.032
 6757SOL    HW232303   7.786   7.679   1.052
 6758SOL     OW32304   9.188   4.788   5.918
 6758SOL    HW132305   9.255   4.805   5.991
 6758SOL    HW232306   9.224   4.718   5.856
 6759SOL     OW32307   2.540   1.929   0.819
 6759SOL    HW132308   2.532   1.858   0.890
 6759SOL    HW232309   2.605   1.899   0.749
 6760SOL     OW32310   2.034   2.383   1.671
 6760SOL    HW132311   2.046   2.472   1.714
 6760SOL    HW232312   1.983   2.323   1.733
 6761SOL     OW32313   3.763   2.879   6.847
 6761SOL    HW132314   3.853   2.923   6.852
 6761SOL    HW232315   3.697   2.932   6.900
 6762SOL     OW32316   5.940   3.936   5.965
 6762SOL    HW132317   5.965   3.839   5.963
 6762SOL    HW232318   5.860   3.950   5.907
 6763SOL     OW32319   6.333   4.761   1.014
 6763SOL    HW132320   6.320   4.769   0.915
 6763SOL    HW232321   6.408   4.821   1.042
 6764SOL     OW32322   5.500   1.113   5.627
 6764SOL    HW132323   5.516   1.104   5.726
 6764SOL    HW232324   5.405   1.091   5.607
 6765SOL     OW32325   2.562   7.753   0.736
 6765SOL    HW132326   2.598   7.771   0.828
 6765SOL    HW232327   2.523   7.661   0.733
 6766SOL     OW32328   5.742   3.091   6.252
 6766SOL    HW132329   5.708   3.111   6.160
 6766SOL    HW232330   5.702   3.156   6.317
 6767SOL     OW32331   3.330   5.444   0.907
 6767SOL    HW132332   3.421   5.402   0.900
 6767SOL    HW232333   3.316   5.479   1.000
 6768SOL     OW32334   9.031   5.701   6.945
 6768SOL    HW132335   8.954   5.747   6.902
 6768SOL    HW232336   8.998   5.640   7.017
 6769SOL     OW32337   3.092   8.406   0.538
 6769SOL    HW132338   3.186   8.424   0.564
 6769SOL    HW232339   3.077   8.432   0.443
 6770SOL     OW32340   2.544   2.461   2.495
 6770SOL    HW132341   2.605   2.530   2.457
 6770SOL    HW232342   2.449   2.490   2.481
 6771SOL     OW32343   2.407   1.015   0.785
 6771SOL    HW132344   2.457   1.101   0.792
 6771SOL    HW232345   2.320   1.023   0.834
 6772SOL     OW32346   9.557   5.356   0.794
 6772SOL    HW132347   9.525   5.270   0.755
 6772SOL    HW232348   9.530   5.361   0.890
 6773SOL     OW32349   7.276   5.254   6.678
 6773SOL    HW132350   7.246   5.314   6.604
 6773SOL    HW232351   7.200   5.238   6.741
 6774SOL     OW32352   4.323   5.561   1.617
 6774SOL    HW132353   4.240   5.510   1.595
 6774SOL    HW232354   4.393   5.499   1.652
 6775SOL     OW32355   3.888   0.128   0.876
 6775SOL    HW132356   3.880   0.197   0.948
 6775SOL    HW232357   3.943   0.165   0.801
 6776SOL     OW32358   5.357   3.649   6.214
 6776SOL    HW132359   5.451   3.614   6.219
 6776SOL    HW232360   5.304   3.592   6.151
 6777SOL     OW32361   4.690   5.474   1.220
 6777SOL    HW132362   4.712   5.556   1.166
 6777SOL    HW232363   4.695   5.393   1.161
 6778SOL     OW32364   7.075   7.942   0.318
 6778SOL    HW132365   7.075   7.870   0.248
 6778SOL    HW232366   7.020   8.019   0.286
 6779SOL     OW32367   7.151   2.123   1.425
 6779SOL    HW132368   7.193   2.144   1.337
 6779SOL    HW232369   7.136   2.208   1.476
 6780SOL     OW32370   3.223   2.147   1.965
 6780SOL    HW132371   3.162   2.222   1.988
 6780SOL    HW232372   3.308   2.183   1.927
 6781SOL     OW32373   5.057   5.470   6.954
 6781SOL    HW132374   5.040   5.512   7.043
 6781SOL    HW232375   5.098   5.380   6.966
 6782SOL     OW32376   2.033   4.414   1.362
 6782SOL    HW132377   1.982   4.373   1.287
 6782SOL    HW232378   1.987   4.496   1.394
 6783SOL     OW32379   3.482   4.386   6.746
 6783SOL    HW132380   3.470   4.482   6.771
 6783SOL    HW232381   3.401   4.334   6.773
 6784SOL     OW32382   4.126   4.102   1.271
 6784SOL    HW132383   4.088   4.120   1.362
 6784SOL    HW232384   4.173   4.183   1.237
 6785SOL     OW32385   4.110   4.124   1.574
 6785SOL    HW132386   4.075   4.122   1.668
 6785SOL    HW232387   4.189   4.185   1.570
 6786SOL     OW32388   5.023   7.684   1.659
 6786SOL    HW132389   5.099   7.674   1.724
 6786SOL    HW232390   5.057   7.669   1.566
 6787SOL     OW32391   8.270   1.811   1.380
 6787SOL    HW132392   8.329   1.784   1.456
 6787SOL    HW232393   8.202   1.877   1.412
 6788SOL     OW32394   7.654   4.965   6.222
 6788SOL    HW132395   7.633   4.891   6.286
 6788SOL    HW232396   7.744   5.002   6.243
 6789SOL     OW32397   0.486   6.053   1.145
 6789SOL    HW132398   0.490   5.967   1.095
 6789SOL    HW232399   0.486   6.035   1.243
 6790SOL     OW32400   1.868   4.725   6.923
 6790SOL    HW132401   1.942   4.704   6.858
 6790SOL    HW232402   1.846   4.822   6.919
 6791SOL     OW32403   2.695   8.316   0.526
 6791SOL    HW132404   2.688   8.384   0.599
 6791SOL    HW232405   2.694   8.224   0.566
 6792SOL     OW32406   3.781   7.506   5.046
 6792SOL    HW132407   3.762   7.412   5.016
 6792SOL    HW232408   3.865   7.507   5.099
 6793SOL     OW32409   5.252   7.811   1.764
 6793SOL    HW132410   5.313   7.890   1.764
 6793SOL    HW232411   5.296   7.735   1.813
 6794SOL     OW32412   7.451   6.771   6.676
 6794SOL    HW132413   7.470   6.782   6.579
 6794SOL    HW232414   7.531   6.732   6.721
 6795SOL     OW32415   4.488   5.877   6.683
 6795SOL    HW132416   4.536   5.889   6.596
 6795SOL    HW232417   4.555   5.863   6.756
 6796SOL     OW32418   9.208   5.530   5.952
 6796SOL    HW132419   9.140   5.458   5.970
 6796SOL    HW232420   9.279   5.526   6.023
 6797SOL     OW32421   1.251   7.571   0.505
 6797SOL    HW132422   1.271   7.542   0.411
 6797SOL    HW232423   1.191   7.503   0.548
 6798SOL     OW32424   8.703   2.840   5.425
 6798SOL    HW132425   8.774   2.796   5.370
 6798SOL    HW232426   8.669   2.921   5.376
 6799SOL     OW32427   8.463   7.971   5.380
 6799SOL    HW132428   8.461   8.049   5.317
 6799SOL    HW232429   8.493   7.889   5.332
 6800SOL     OW32430   7.952   3.804   6.680
 6800SOL    HW132431   7.899   3.872   6.730
 6800SOL    HW232432   7.915   3.713   6.696
 6801SOL     OW32433   2.773   1.422   1.270
 6801SOL    HW132434   2.691   1.470   1.298
 6801SOL    HW232435   2.851   1.453   1.324
 6802SOL     OW32436   3.333   7.549   0.556
 6802SOL    HW132437   3.272   7.475   0.586
 6802SOL    HW232438   3.407   7.560   0.623
 6803SOL     OW32439   6.909   5.685   5.882
 6803SOL    HW132440   6.941   5.751   5.950
 6803SOL    HW232441   6.810   5.673   5.892
 6804SOL     OW32442   4.322   0.391   1.667
 6804SOL    HW132443   4.343   0.303   1.708
 6804SOL    HW232444   4.388   0.459   1.697
 6805SOL     OW32445   3.516   2.859   2.340
 6805SOL    HW132446   3.529   2.765   2.372
 6805SOL    HW232447   3.456   2.908   2.403
 6806SOL     OW32448   5.224   6.231   6.423
 6806SOL    HW132449   5.297   6.184   6.473
 6806SOL    HW232450   5.137   6.220   6.472
 6807SOL     OW32451   0.795   5.263   0.759
 6807SOL    HW132452   0.729   5.215   0.818
 6807SOL    HW232453   0.855   5.197   0.714
 6808SOL     OW32454   4.010   7.329   0.977
 6808SOL    HW132455   4.022   7.345   0.880
 6808SOL    HW232456   4.049   7.240   1.001
 6809SOL     OW32457   5.153   1.709   0.720
 6809SOL    HW132458   5.171   1.794   0.770
 6809SOL    HW232459   5.231   1.647   0.731
 6810SOL     OW32460   5.200   8.317   2.014
 6810SOL    HW132461   5.295   8.326   2.043
 6810SOL    HW232462   5.141   8.314   2.094
 6811SOL     OW32463   9.412   0.064   0.549
 6811SOL    HW132464   9.380   0.138   0.490
 6811SOL    HW232465   9.440  -0.014   0.493
 6812SOL     OW32466   4.902   2.090   0.335
 6812SOL    HW132467   4.971   2.021   0.313
 6812SOL    HW232468   4.928   2.137   0.419
 6813SOL     OW32469   3.828   1.936   2.730
 6813SOL    HW132470   3.836   1.837   2.721
 6813SOL    HW232471   3.740   1.959   2.773
 6814SOL     OW32472   5.133   2.244   6.845
 6814SOL    HW132473   5.056   2.242   6.782
 6814SOL    HW232474   5.101   2.225   6.938
 6815SOL     OW32475   8.588   6.656   6.315
 6815SOL    HW132476   8.634   6.587   6.372
 6815SOL    HW232477   8.556   6.613   6.231
 6816SOL     OW32478   5.140   7.162   1.467
 6816SOL    HW132479   5.066   7.094   1.459
 6816SOL    HW232480   5.226   7.121   1.439
 6817SOL     OW32481   0.407   2.579   5.954
 6817SOL    HW132482   0.401   2.660   6.012
 6817SOL    HW232483   0.315   2.549   5.929
 6818SOL     OW32484   7.739   5.791   0.801
 6818SOL    HW132485   7.709   5.818   0.893
 6818SOL    HW232486   7.832   5.824   0.785
 6819SOL     OW32487   3.546   1.972   1.871
 6819SOL    HW132488   3.607   1.964   1.792
 6819SOL    HW232489   3.499   1.886   1.886
 6820SOL     OW32490   3.927   6.841   1.861
 6820SOL    HW132491   3.968   6.828   1.771
 6820SOL    HW232492   3.986   6.899   1.917
 6821SOL     OW32493   7.602   4.761   6.417
 6821SOL    HW132494   7.673   4.715   6.471
 6821SOL    HW232495   7.518   4.769   6.471
 6822SOL     OW32496   5.450   2.208   0.738
 6822SOL    HW132497   5.397   2.289   0.764
 6822SOL    HW232498   5.437   2.137   0.807
 6823SOL     OW32499   5.045   8.312   1.787
 6823SOL    HW132500   5.119   8.272   1.733
 6823SOL    HW232501   5.077   8.331   1.880
 6824SOL     OW32502   9.466   5.717   1.049
 6824SOL    HW132503   9.445   5.734   1.146
 6824SOL    HW232504   9.557   5.751   1.028
 6825SOL     OW32505   0.662   6.811   4.962
 6825SOL    HW132506   0.605   6.770   5.033
 6825SOL    HW232507   0.631   6.779   4.872
 6826SOL     OW32508   7.513   5.245   6.842
 6826SOL    HW132509   7.592   5.209   6.792
 6826SOL    HW232510   7.443   5.276   6.778
 6827SOL     OW32511   2.222   5.717   6.237
 6827SOL    HW132512   2.314   5.683   6.254
 6827SOL    HW232513   2.189   5.765   6.318
 6828SOL     OW32514   1.635   4.589   6.358
 6828SOL    HW132515   1.588   4.501   6.357
 6828SOL    HW232516   1.709   4.587   6.425
 6829SOL     OW32517   8.204   3.899   0.517
 6829SOL    HW132518   8.253   3.817   0.548
 6829SOL    HW232519   8.258   3.945   0.446
 6830SOL     OW32520   7.127   6.818   6.222
 6830SOL    HW132521   7.159   6.832   6.129
 6830SOL    HW232522   7.057   6.885   6.244
 6831SOL     OW32523   7.534   2.031   6.915
 6831SOL    HW132524   7.443   1.993   6.906
 6831SOL    HW232525   7.601   1.968   6.876
 6832SOL     OW32526   1.989   0.337   2.122
 6832SOL    HW132527   1.926   0.270   2.161
 6832SOL    HW232528   1.938   0.404   2.069
 6833SOL     OW32529   3.528   4.668   6.048
 6833SOL    HW132530   3.615   4.666   5.999
 6833SOL    HW232531   3.472   4.591   6.019
 6834SOL     OW32532   5.549   4.791   0.799
 6834SOL    HW132533   5.517   4.832   0.715
 6834SOL    HW232534   5.551   4.860   0.872
 6835SOL     OW32535   7.055   5.533   5.649
 6835SOL    HW132536   7.010   5.598   5.711
 6835SOL    HW232537   7.099   5.460   5.703
 6836SOL     OW32538   3.298   4.403   6.517
 6836SOL    HW132539   3.342   4.434   6.432
 6836SOL    HW232540   3.360   4.418   6.594
 6837SOL     OW32541   1.737   2.665   5.688
 6837SOL    HW132542   1.729   2.645   5.590
 6837SOL    HW232543   1.704   2.757   5.706
 6838SOL     OW32544   6.624   4.344   0.966
 6838SOL    HW132545   6.530   4.378   0.971
 6838SOL    HW232546   6.632   4.279   0.891
 6839SOL     OW32547   2.943   5.114   5.732
 6839SOL    HW132548   2.929   5.195   5.674
 6839SOL    HW232549   2.952   5.033   5.674
 6840SOL     OW32550   1.896   8.335   6.122
 6840SOL    HW132551   1.839   8.400   6.173
 6840SOL    HW232552   1.987   8.374   6.108
 6841SOL     OW32553   6.199   2.528   5.627
 6841SOL    HW132554   6.244   2.535   5.716
 6841SOL    HW232555   6.257   2.572   5.557
 6842SOL     OW32556   3.262   0.433   1.800
 6842SOL    HW132557   3.337   0.389   1.851
 6842SOL    HW232558   3.199   0.362   1.768
 6843SOL     OW32559   2.867   0.225   0.547
 6843SOL    HW132560   2.774   0.221   0.511
 6843SOL    HW232561   2.864   0.229   0.647
 6844SOL     OW32562   6.239   7.470   1.485
 6844SOL    HW132563   6.267   7.474   1.389
 6844SOL    HW232564   6.183   7.550   1.507
 6845SOL     OW32565   0.540   3.016   6.228
 6845SOL    HW132566   0.478   3.075   6.282
 6845SOL    HW232567   0.605   2.971   6.289
 6846SOL     OW32568   9.116   4.759   0.673
 6846SOL    HW132569   9.062   4.821   0.615
 6846SOL    HW232570   9.188   4.717   0.618
 6847SOL     OW32571   2.144   2.689   6.494
 6847SOL    HW132572   2.129   2.671   6.397
 6847SOL    HW232573   2.066   2.654   6.547
 6848SOL     OW32574   4.128   4.224   6.265
 6848SOL    HW132575   4.148   4.152   6.199
 6848SOL    HW232576   4.194   4.298   6.255
 6849SOL     OW32577   9.228   1.822   5.989
 6849SOL    HW132578   9.211   1.889   6.061
 6849SOL    HW232579   9.318   1.781   6.003
 6850SOL     OW32580   5.642   0.213   0.244
 6850SOL    HW132581   5.568   0.278   0.227
 6850SOL    HW232582   5.606   0.134   0.294
 6851SOL     OW32583   0.607   1.629   6.620
 6851SOL    HW132584   0.575   1.595   6.532
 6851SOL    HW232585   0.574   1.568   6.693
 6852SOL     OW32586   1.206   6.346   6.629
 6852SOL    HW132587   1.144   6.383   6.560
 6852SOL    HW232588   1.154   6.309   6.706
 6853SOL     OW32589   3.086   3.928   1.440
 6853SOL    HW132590   3.057   3.994   1.371
 6853SOL    HW232591   3.075   3.968   1.531
 6854SOL     OW32592   5.880   7.300   5.823
 6854SOL    HW132593   5.812   7.236   5.788
 6854SOL    HW232594   5.924   7.346   5.746
 6855SOL     OW32595   2.017   6.999   0.285
 6855SOL    HW132596   2.011   6.900   0.276
 6855SOL    HW232597   2.020   7.024   0.382
 6856SOL     OW32598   6.323   5.652   6.143
 6856SOL    HW132599   6.270   5.582   6.095
 6856SOL    HW232600   6.288   5.661   6.236
 6857SOL     OW32601   8.513   7.835   6.622
 6857SOL    HW132602   8.476   7.755   6.668
 6857SOL    HW232603   8.484   7.834   6.526
 6858SOL     OW32604   9.199   0.114   6.800
 6858SOL    HW132605   9.232   0.125   6.707
 6858SOL    HW232606   9.109   0.157   6.810
 6859SOL     OW32607   0.136   5.026   0.932
 6859SOL    HW132608   0.178   4.938   0.954
 6859SOL    HW232609   0.036   5.016   0.934
 6860SOL     OW32610   8.258   8.282   6.376
 6860SOL    HW132611   8.165   8.308   6.401
 6860SOL    HW232612   8.268   8.182   6.383
 6861SOL     OW32613   4.884   4.507   0.667
 6861SOL    HW132614   4.786   4.509   0.648
 6861SOL    HW232615   4.925   4.595   0.643
 6862SOL     OW32616   5.419   5.637   1.491
 6862SOL    HW132617   5.321   5.641   1.510
 6862SOL    HW232618   5.441   5.699   1.415
 6863SOL     OW32619   1.088   8.213   1.090
 6863SOL    HW132620   1.158   8.282   1.072
 6863SOL    HW232621   1.127   8.122   1.075
 6864SOL     OW32622   6.489   2.046   5.834
 6864SOL    HW132623   6.399   2.075   5.802
 6864SOL    HW232624   6.553   2.047   5.758
 6865SOL     OW32625   2.308   2.833   6.642
 6865SOL    HW132626   2.239   2.768   6.610
 6865SOL    HW232627   2.332   2.896   6.567
 6866SOL     OW32628   5.321   1.822   6.899
 6866SOL    HW132629   5.343   1.902   6.955
 6866SOL    HW232630   5.398   1.802   6.839
 6867SOL     OW32631   3.785   5.957   5.941
 6867SOL    HW132632   3.873   5.949   5.896
 6867SOL    HW232633   3.717   5.993   5.877
 6868SOL     OW32634   8.460   3.274   6.426
 6868SOL    HW132635   8.410   3.354   6.392
 6868SOL    HW232636   8.395   3.207   6.462
 6869SOL     OW32637   4.240   4.384   1.428
 6869SOL    HW132638   4.145   4.408   1.406
 6869SOL    HW232639   4.247   4.366   1.527
 6870SOL     OW32640   9.386   4.671   6.261
 6870SOL    HW132641   9.428   4.712   6.180
 6870SOL    HW232642   9.451   4.608   6.304
 6871SOL     OW32643   1.668   0.047   6.606
 6871SOL    HW132644   1.659  -0.051   6.588
 6871SOL    HW232645   1.750   0.063   6.660
 6872SOL     OW32646   1.878   2.212   1.444
 6872SOL    HW132647   1.813   2.278   1.407
 6872SOL    HW232648   1.936   2.258   1.512
 6873SOL     OW32649   3.326   7.712   1.505
 6873SOL    HW132650   3.351   7.662   1.422
 6873SOL    HW232651   3.301   7.806   1.480
 6874SOL     OW32652   0.353   1.367   5.846
 6874SOL    HW132653   0.336   1.271   5.824
 6874SOL    HW232654   0.286   1.425   5.800
 6875SOL     OW32655   1.185   5.023   1.948
 6875SOL    HW132656   1.196   4.933   1.989
 6875SOL    HW232657   1.254   5.036   1.877
 6876SOL     OW32658   3.821   7.378   5.743
 6876SOL    HW132659   3.894   7.446   5.742
 6876SOL    HW232660   3.844   7.307   5.810
 6877SOL     OW32661   6.125   2.191   6.863
 6877SOL    HW132662   6.221   2.187   6.892
 6877SOL    HW232663   6.067   2.210   6.942
 6878SOL     OW32664   3.802   2.881   2.130
 6878SOL    HW132665   3.825   2.861   2.225
 6878SOL    HW232666   3.715   2.932   2.127
 6879SOL     OW32667   5.942   6.126   6.433
 6879SOL    HW132668   6.002   6.049   6.413
 6879SOL    HW232669   5.848   6.102   6.410
 6880SOL     OW32670   4.184   4.975   6.478
 6880SOL    HW132671   4.205   5.054   6.422
 6880SOL    HW232672   4.085   4.961   6.481
 6881SOL     OW32673   0.314   5.063   1.462
 6881SOL    HW132674   0.321   5.122   1.543
 6881SOL    HW232675   0.400   5.014   1.448
 6882SOL     OW32676   0.933   7.050   6.229
 6882SOL    HW132677   0.989   6.977   6.192
 6882SOL    HW232678   0.919   7.120   6.159
 6883SOL     OW32679   6.035   0.257   6.186
 6883SOL    HW132680   6.060   0.350   6.213
 6883SOL    HW232681   5.980   0.261   6.102
 6884SOL     OW32682   1.043   0.434   0.679
 6884SOL    HW132683   1.080   0.491   0.606
 6884SOL    HW232684   0.953   0.468   0.706
 6885SOL     OW32685   5.103   4.267   1.381
 6885SOL    HW132686   5.194   4.265   1.421
 6885SOL    HW232687   5.079   4.361   1.358
 6886SOL     OW32688   1.870   8.084   6.278
 6886SOL    HW132689   1.895   8.170   6.235
 6886SOL    HW232690   1.848   8.100   6.375
 6887SOL     OW32691   4.803   5.814   5.389
 6887SOL    HW132692   4.747   5.878   5.337
 6887SOL    HW232693   4.797   5.723   5.347
 6888SOL     OW32694   6.062   0.980   6.069
 6888SOL    HW132695   6.087   0.950   5.977
 6888SOL    HW232696   5.980   0.930   6.099
 6889SOL     OW32697   0.814   5.816   4.819
 6889SOL    HW132698   0.719   5.806   4.848
 6889SOL    HW232699   0.826   5.906   4.777
 6890SOL     OW32700   0.431   7.369   1.068
 6890SOL    HW132701   0.395   7.462   1.064
 6890SOL    HW232702   0.368   7.312   1.122
 6891SOL     OW32703   3.885   8.284   0.587
 6891SOL    HW132704   3.832   8.248   0.663
 6891SOL    HW232705   3.950   8.215   0.555
 6892SOL     OW32706   8.967   0.610   0.784
 6892SOL    HW132707   9.004   0.627   0.875
 6892SOL    HW232708   8.915   0.690   0.754
 6893SOL     OW32709   4.157   6.400   5.272
 6893SOL    HW132710   4.219   6.364   5.202
 6893SOL    HW232711   4.068   6.420   5.230
 6894SOL     OW32712   0.606   1.045   5.206
 6894SOL    HW132713   0.570   1.037   5.113
 6894SOL    HW232714   0.681   1.111   5.208
 6895SOL     OW32715   6.687   5.958   6.465
 6895SOL    HW132716   6.600   6.004   6.448
 6895SOL    HW232717   6.681   5.863   6.433
 6896SOL     OW32718   6.317   5.507   5.399
 6896SOL    HW132719   6.292   5.518   5.303
 6896SOL    HW232720   6.248   5.453   5.446
 6897SOL     OW32721   1.017   3.004   5.424
 6897SOL    HW132722   0.940   3.034   5.366
 6897SOL    HW232723   1.099   2.994   5.368
 6898SOL     OW32724   1.127   7.213   4.815
 6898SOL    HW132725   1.199   7.248   4.755
 6898SOL    HW232726   1.139   7.115   4.828
 6899SOL     OW32727   8.031   4.834   6.950
 6899SOL    HW132728   7.965   4.876   6.888
 6899SOL    HW232729   8.061   4.901   7.018
 6900SOL     OW32730   2.792   1.492   1.751
 6900SOL    HW132731   2.744   1.419   1.704
 6900SOL    HW232732   2.751   1.509   1.841
 6901SOL     OW32733   6.644   7.519   6.703
 6901SOL    HW132734   6.637   7.423   6.732
 6901SOL    HW232735   6.576   7.573   6.753
 6902SOL     OW32736   3.499   5.137   6.098
 6902SOL    HW132737   3.416   5.084   6.078
 6902SOL    HW232738   3.576   5.097   6.049
 6903SOL     OW32739   5.569   2.571   0.329
 6903SOL    HW132740   5.520   2.655   0.354
 6903SOL    HW232741   5.666   2.592   0.316
 6904SOL     OW32742   5.633   7.361   0.628
 6904SOL    HW132743   5.626   7.336   0.724
 6904SOL    HW232744   5.547   7.340   0.581
 6905SOL     OW32745   4.134   2.086   6.729
 6905SOL    HW132746   4.174   2.160   6.783
 6905SOL    HW232747   4.205   2.020   6.706
 6906SOL     OW32748   5.605   4.610   1.113
 6906SOL    HW132749   5.584   4.565   1.026
 6906SOL    HW232750   5.654   4.546   1.172
 6907SOL     OW32751   5.828   0.479   1.668
 6907SOL    HW132752   5.913   0.482   1.720
 6907SOL    HW232753   5.828   0.400   1.608
 6908SOL     OW32754   8.498   2.247   5.453
 6908SOL    HW132755   8.594   2.271   5.437
 6908SOL    HW232756   8.481   2.155   5.418
 6909SOL     OW32757   2.003   4.078   6.716
 6909SOL    HW132758   1.929   4.107   6.776
 6909SOL    HW232759   2.055   4.005   6.761
 6910SOL     OW32760   4.121   6.974   2.003
 6910SOL    HW132761   4.053   7.046   2.020
 6910SOL    HW232762   4.177   6.961   2.085
 6911SOL     OW32763   1.627   8.123   6.010
 6911SOL    HW132764   1.641   8.032   5.971
 6911SOL    HW232765   1.658   8.192   5.944
 6912SOL     OW32766   1.339   5.136   6.342
 6912SOL    HW132767   1.302   5.170   6.256
 6912SOL    HW232768   1.304   5.044   6.359
 6913SOL     OW32769   3.021   2.304   6.570
 6913SOL    HW132770   3.000   2.227   6.630
 6913SOL    HW232771   3.001   2.278   6.475
 6914SOL     OW32772   4.603   0.872   1.172
 6914SOL    HW132773   4.642   0.783   1.149
 6914SOL    HW232774   4.518   0.860   1.222
 6915SOL     OW32775   2.955   0.537   1.271
 6915SOL    HW132776   2.923   0.509   1.361
 6915SOL    HW232777   2.877   0.561   1.213
 6916SOL     OW32778   6.850   7.557   5.953
 6916SOL    HW132779   6.859   7.644   6.002
 6916SOL    HW232780   6.814   7.488   6.016
 6917SOL     OW32781   4.517   7.174   0.762
 6917SOL    HW132782   4.433   7.121   0.776
 6917SOL    HW232783   4.500   7.247   0.696
 6918SOL     OW32784   4.457   6.428   1.377
 6918SOL    HW132785   4.533   6.377   1.337
 6918SOL    HW232786   4.400   6.367   1.432
 6919SOL     OW32787   6.683   3.284   6.617
 6919SOL    HW132788   6.743   3.239   6.684
 6919SOL    HW232789   6.693   3.240   6.528
 6920SOL     OW32790   1.950   0.238   6.750
 6920SOL    HW132791   1.936   0.160   6.811
 6920SOL    HW232792   1.888   0.231   6.672
 6921SOL     OW32793   5.930   2.728   6.806
 6921SOL    HW132794   5.844   2.773   6.782
 6921SOL    HW232795   5.964   2.765   6.892
 6922SOL     OW32796   8.827   0.400   6.052
 6922SOL    HW132797   8.887   0.436   6.123
 6922SOL    HW232798   8.812   0.302   6.067
 6923SOL     OW32799   9.332   6.028   5.492
 6923SOL    HW132800   9.365   6.121   5.482
 6923SOL    HW232801   9.277   6.003   5.413
 6924SOL     OW32802   4.502   2.991   6.282
 6924SOL    HW132803   4.510   3.091   6.277
 6924SOL    HW232804   4.576   2.955   6.338
 6925SOL     OW32805   6.514   2.950   6.043
 6925SOL    HW132806   6.433   2.950   5.984
 6925SOL    HW232807   6.589   2.901   5.999
 6926SOL     OW32808   4.041   5.457   6.855
 6926SOL    HW132809   4.001   5.435   6.766
 6926SOL    HW232810   4.140   5.468   6.844
 6927SOL     OW32811   2.012   6.749   1.224
 6927SOL    HW132812   2.103   6.781   1.248
 6927SOL    HW232813   1.943   6.809   1.266
 6928SOL     OW32814   4.825   1.107   0.952
 6928SOL    HW132815   4.727   1.101   0.932
 6928SOL    HW232816   4.840   1.097   1.050
 6929SOL     OW32817   5.967   0.598   6.604
 6929SOL    HW132818   6.057   0.556   6.616
 6929SOL    HW232819   5.969   0.660   6.525
 6930SOL     OW32820   1.616   6.071   5.282
 6930SOL    HW132821   1.668   6.005   5.228
 6930SOL    HW232822   1.577   6.025   5.362
 6931SOL     OW32823   6.758   7.562   0.864
 6931SOL    HW132824   6.818   7.489   0.832
 6931SOL    HW232825   6.764   7.640   0.802
 6932SOL     OW32826   4.734   4.271   1.222
 6932SOL    HW132827   4.707   4.189   1.171
 6932SOL    HW232828   4.828   4.296   1.197
 6933SOL     OW32829   1.396   2.848   6.643
 6933SOL    HW132830   1.345   2.905   6.708
 6933SOL    HW232831   1.346   2.842   6.557
 6934SOL     OW32832   7.762   7.817   1.265
 6934SOL    HW132833   7.712   7.877   1.203
 6934SOL    HW232834   7.714   7.729   1.272
 6935SOL     OW32835   7.389   0.554   5.899
 6935SOL    HW132836   7.413   0.516   5.989
 6935SOL    HW232837   7.456   0.625   5.874
 6936SOL     OW32838   0.221   4.484   6.177
 6936SOL    HW132839   0.164   4.507   6.256
 6936SOL    HW232840   0.241   4.568   6.126
 6937SOL     OW32841   2.041   0.331   6.409
 6937SOL    HW132842   2.019   0.372   6.321
 6937SOL    HW232843   1.960   0.283   6.444
 6938SOL     OW32844   3.646   5.396   0.875
 6938SOL    HW132845   3.680   5.462   0.942
 6938SOL    HW232846   3.690   5.412   0.787
 6939SOL     OW32847   7.164   3.610   6.340
 6939SOL    HW132848   7.217   3.672   6.282
 6939SOL    HW232849   7.078   3.587   6.295
 6940SOL     OW32850   7.171   0.645   0.711
 6940SOL    HW132851   7.153   0.620   0.615
 6940SOL    HW232852   7.190   0.743   0.716
 6941SOL     OW32853   0.964   2.853   1.329
 6941SOL    HW132854   0.890   2.909   1.367
 6941SOL    HW232855   1.006   2.902   1.252
 6942SOL     OW32856   6.810   7.829   5.997
 6942SOL    HW132857   6.822   7.866   5.906
 6942SOL    HW232858   6.740   7.881   6.046
 6943SOL     OW32859   5.182   6.661   5.920
 6943SOL    HW132860   5.214   6.610   6.000
 6943SOL    HW232861   5.145   6.598   5.852
 6944SOL     OW32862   6.861   2.030   2.221
 6944SOL    HW132863   6.931   1.966   2.187
 6944SOL    HW232864   6.774   2.011   2.177
 6945SOL     OW32865   2.913   1.124   6.800
 6945SOL    HW132866   2.874   1.138   6.709
 6945SOL    HW232867   2.841   1.095   6.863
 6946SOL     OW32868   6.433   8.372   6.160
 6946SOL    HW132869   6.404   8.297   6.219
 6946SOL    HW232870   6.532   8.370   6.148
 6947SOL     OW32871   1.903   1.294   6.291
 6947SOL    HW132872   1.988   1.347   6.287
 6947SOL    HW232873   1.918   1.205   6.249
 6948SOL     OW32874   2.321   5.704   0.870
 6948SOL    HW132875   2.228   5.689   0.903
 6948SOL    HW232876   2.386   5.668   0.937
 6949SOL     OW32877   5.553   2.442   6.814
 6949SOL    HW132878   5.650   2.450   6.790
 6949SOL    HW232879   5.539   2.473   6.908
 6950SOL     OW32880   0.421   6.251   6.616
 6950SOL    HW132881   0.325   6.220   6.613
 6950SOL    HW232882   0.437   6.300   6.701
 6951SOL     OW32883   8.932   8.170   0.272
 6951SOL    HW132884   8.946   8.087   0.218
 6951SOL    HW232885   9.017   8.194   0.318
 6952SOL     OW32886   5.519   7.151   1.110
 6952SOL    HW132887   5.612   7.167   1.077
 6952SOL    HW232888   5.503   7.205   1.193
 6953SOL     OW32889   2.991   2.101   0.338
 6953SOL    HW132890   2.901   2.067   0.310
 6953SOL    HW232891   3.057   2.025   0.336
 6954SOL     OW32892   4.797   5.134   6.078
 6954SOL    HW132893   4.859   5.169   6.008
 6954SOL    HW232894   4.848   5.085   6.148
 6955SOL     OW32895   4.203   1.923   1.842
 6955SOL    HW132896   4.157   2.012   1.843
 6955SOL    HW232897   4.299   1.934   1.867
 6956SOL     OW32898   3.753   5.154   0.413
 6956SOL    HW132899   3.673   5.168   0.355
 6956SOL    HW232900   3.831   5.202   0.373
 6957SOL     OW32901   4.373   2.017   5.735
 6957SOL    HW132902   4.289   1.964   5.739
 6957SOL    HW232903   4.382   2.072   5.818
 6958SOL     OW32904   4.957   5.785   5.640
 6958SOL    HW132905   5.046   5.765   5.599
 6958SOL    HW232906   4.892   5.809   5.568
 6959SOL     OW32907   4.550   7.640   6.677
 6959SOL    HW132908   4.643   7.671   6.699
 6959SOL    HW232909   4.497   7.715   6.639
 6960SOL     OW32910   5.881   3.579   0.485
 6960SOL    HW132911   5.980   3.584   0.499
 6960SOL    HW232912   5.849   3.488   0.513
 6961SOL     OW32913   3.762   2.252   0.385
 6961SOL    HW132914   3.745   2.268   0.483
 6961SOL    HW232915   3.690   2.194   0.348
 6962SOL     OW32916   8.593   3.832   0.459
 6962SOL    HW132917   8.675   3.815   0.404
 6962SOL    HW232918   8.520   3.770   0.428
 6963SOL     OW32919   2.221   4.092   6.319
 6963SOL    HW132920   2.190   4.028   6.248
 6963SOL    HW232921   2.144   4.114   6.379
 6964SOL     OW32922   1.622   5.516   0.536
 6964SOL    HW132923   1.634   5.476   0.627
 6964SOL    HW232924   1.530   5.553   0.527
 6965SOL     OW32925   6.892   7.951   1.248
 6965SOL    HW132926   6.793   7.950   1.262
 6965SOL    HW232927   6.938   7.908   1.326
 6966SOL     OW32928   8.285   0.744   6.019
 6966SOL    HW132929   8.313   0.804   5.945
 6966SOL    HW232930   8.186   0.740   6.024
 6967SOL     OW32931   5.476   5.734   0.688
 6967SOL    HW132932   5.553   5.687   0.732
 6967SOL    HW232933   5.500   5.830   0.673
 6968SOL     OW32934   1.719   6.006   1.077
 6968SOL    HW132935   1.781   5.952   1.020
 6968SOL    HW232936   1.747   5.999   1.173
 6969SOL     OW32937   4.367   1.777   0.421
 6969SOL    HW132938   4.332   1.798   0.512
 6969SOL    HW232939   4.378   1.862   0.369
 6970SOL     OW32940   4.416   2.963   6.039
 6970SOL    HW132941   4.394   3.058   6.018
 6970SOL    HW232942   4.468   2.959   6.124
 6971SOL     OW32943   9.063   0.691   6.072
 6971SOL    HW132944   9.121   0.764   6.109
 6971SOL    HW232945   8.977   0.730   6.041
 6972SOL     OW32946   6.909   7.289   5.869
 6972SOL    HW132947   6.948   7.333   5.788
 6972SOL    HW232948   6.959   7.320   5.950
 6973SOL     OW32949   6.087   3.454   0.622
 6973SOL    HW132950   6.041   3.365   0.623
 6973SOL    HW232951   6.089   3.491   0.715
 6974SOL     OW32952   1.289   8.417   1.048
 6974SOL    HW132953   1.280   8.487   1.119
 6974SOL    HW232954   1.372   8.363   1.064
 6975SOL     OW32955   9.253   3.115   6.048
 6975SOL    HW132956   9.330   3.135   5.988
 6975SOL    HW232957   9.174   3.170   6.020
 6976SOL     OW32958   5.610   3.692   1.392
 6976SOL    HW132959   5.518   3.721   1.364
 6976SOL    HW232960   5.652   3.764   1.446
 6977SOL     OW32961   6.141   5.003   5.470
 6977SOL    HW132962   6.073   5.019   5.398
 6977SOL    HW232963   6.209   5.077   5.468
 6978SOL     OW32964   3.006   4.999   6.289
 6978SOL    HW132965   2.913   4.984   6.323
 6978SOL    HW232966   3.054   5.063   6.348
 6979SOL     OW32967   5.703   5.678   0.977
 6979SOL    HW132968   5.671   5.767   1.009
 6979SOL    HW232969   5.717   5.618   1.055
 6980SOL     OW32970   4.507   0.800   6.203
 6980SOL    HW132971   4.427   0.752   6.239
 6980SOL    HW232972   4.587   0.777   6.258
 6981SOL     OW32973   7.652   1.330   0.573
 6981SOL    HW132974   7.740   1.331   0.525
 6981SOL    HW232975   7.597   1.408   0.542
 6982SOL     OW32976   0.238   8.420   0.676
 6982SOL    HW132977   0.266   8.324   0.677
 6982SOL    HW232978   0.141   8.426   0.653
 6983SOL     OW32979   6.112   6.042   1.119
 6983SOL    HW132980   6.208   6.025   1.140
 6983SOL    HW232981   6.056   6.020   1.199
 6984SOL     OW32982   1.277   1.112   6.897
 6984SOL    HW132983   1.211   1.043   6.868
 6984SOL    HW232984   1.236   1.170   6.968
 6985SOL     OW32985   7.926   6.118   6.232
 6985SOL    HW132986   7.887   6.082   6.147
 6985SOL    HW232987   7.882   6.074   6.310
 6986SOL     OW32988   0.948   0.640   1.715
 6986SOL    HW132989   0.983   0.663   1.806
 6986SOL    HW232990   0.861   0.688   1.700
 6987SOL     OW32991   0.234   2.148   5.891
 6987SOL    HW132992   0.205   2.182   5.980
 6987SOL    HW232993   0.219   2.049   5.886
 6988SOL     OW32994   0.350   0.268   4.835
 6988SOL    HW132995   0.413   0.322   4.890
 6988SOL    HW232996   0.296   0.329   4.777
 6989SOL     OW32997   1.344  -0.044   6.356
 6989SOL    HW132998   1.384  -0.066   6.267
 6989SOL    HW232999   1.385  -0.103   6.427
 6990SOL     OW33000   6.313   5.484   1.382
 6990SOL    HW133001   6.375   5.413   1.416
 6990SOL    HW233002   6.274   5.456   1.295
 6991SOL     OW33003   2.266   0.660   0.557
 6991SOL    HW133004   2.314   0.748   0.551
 6991SOL    HW233005   2.319   0.597   0.614
 6992SOL     OW33006   2.717   5.993   0.740
 6992SOL    HW133007   2.759   5.935   0.810
 6992SOL    HW233008   2.713   5.942   0.654
 6993SOL     OW33009   8.958   0.431   0.431
 6993SOL    HW133010   8.905   0.439   0.346
 6993SOL    HW233011   9.050   0.467   0.415
 6994SOL     OW33012   0.158   2.781   6.132
 6994SOL    HW133013   0.164   2.820   6.040
 6994SOL    HW233014   0.062   2.766   6.155
 6995SOL     OW33015   8.742   5.638   6.053
 6995SOL    HW133016   8.838   5.651   6.027
 6995SOL    HW233017   8.727   5.679   6.143
 6996SOL     OW33018   8.414   8.069   0.698
 6996SOL    HW133019   8.329   8.117   0.674
 6996SOL    HW233020   8.478   8.074   0.621
 6997SOL     OW33021   6.626   0.836   1.330
 6997SOL    HW133022   6.703   0.830   1.393
 6997SOL    HW233023   6.585   0.745   1.319
 6998SOL     OW33024   1.916   4.154   0.574
 6998SOL    HW133025   1.959   4.236   0.538
 6998SOL    HW233026   1.829   4.177   0.618
 6999SOL     OW33027   0.740   8.387   0.330
 6999SOL    HW133028   0.653   8.413   0.286
 6999SOL    HW233029   0.733   8.403   0.428
 7000SOL     OW33030   7.096   5.120   1.563
 7000SOL    HW133031   7.042   5.075   1.634
 7000SOL    HW233032   7.117   5.055   1.490
 7001SOL     OW33033   2.074   1.182   1.701
 7001SOL    HW133034   2.155   1.124   1.688
 7001SOL    HW233035   2.089   1.241   1.781
 7002SOL     OW33036   3.414   8.393   1.448
 7002SOL    HW133037   3.441   8.316   1.504
 7002SOL    HW233038   3.492   8.424   1.393
 7003SOL     OW33039   3.910   4.698   6.956
 7003SOL    HW133040   3.852   4.779   6.949
 7003SOL    HW233041   3.871   4.625   6.899
 7004SOL     OW33042   0.383   7.185   4.435
 7004SOL    HW133043   0.418   7.144   4.519
 7004SOL    HW233044   0.384   7.118   4.362
 7005SOL     OW33045   8.866   5.770   6.551
 7005SOL    HW133046   8.835   5.865   6.563
 7005SOL    HW233047   8.908   5.760   6.461
 7006SOL     OW33048   9.574   7.738   6.050
 7006SOL    HW133049   9.567   7.826   6.004
 7006SOL    HW233050   9.621   7.673   5.990
 7007SOL     OW33051   5.527   6.118   0.443
 7007SOL    HW133052   5.586   6.066   0.381
 7007SOL    HW233053   5.511   6.210   0.405
 7008SOL     OW33054   4.180   2.851   6.076
 7008SOL    HW133055   4.110   2.908   6.033
 7008SOL    HW233056   4.271   2.887   6.053
 7009SOL     OW33057   4.994   5.286   5.526
 7009SOL    HW133058   4.994   5.199   5.476
 7009SOL    HW233059   4.908   5.295   5.576
 7010SOL     OW33060   1.489   5.602   1.488
 7010SOL    HW133061   1.570   5.661   1.483
 7010SOL    HW233062   1.502   5.534   1.559
 7011SOL     OW33063   6.353  -0.002   6.552
 7011SOL    HW133064   6.448  -0.012   6.520
 7011SOL    HW233065   6.291  -0.010   6.475
 7012SOL     OW33066   2.911   6.268   0.887
 7012SOL    HW133067   2.945   6.207   0.959
 7012SOL    HW233068   2.859   6.215   0.820
 7013SOL     OW33069   7.492   6.316   1.609
 7013SOL    HW133070   7.451   6.395   1.655
 7013SOL    HW233071   7.590   6.314   1.626
 7014SOL     OW33072   0.458   4.584   6.430
 7014SOL    HW133073   0.517   4.507   6.456
 7014SOL    HW233074   0.363   4.562   6.453
 7015SOL     OW33075   7.760   0.945   5.728
 7015SOL    HW133076   7.679   0.965   5.673
 7015SOL    HW233077   7.840   0.990   5.687
 7016SOL     OW33078   0.205   5.512   6.069
 7016SOL    HW133079   0.251   5.593   6.106
 7016SOL    HW233080   0.264   5.469   6.001
 7017SOL     OW33081   0.964   6.642   1.290
 7017SOL    HW133082   0.955   6.672   1.385
 7017SOL    HW233083   0.895   6.689   1.234
 7018SOL     OW33084   9.311   4.092   1.501
 7018SOL    HW133085   9.357   4.133   1.580
 7018SOL    HW233086   9.254   4.161   1.456
 7019SOL     OW33087   6.076   4.390   6.776
 7019SOL    HW133088   5.982   4.423   6.771
 7019SOL    HW233089   6.113   4.381   6.683
 7020SOL     OW33090   3.676   8.285   6.772
 7020SOL    HW133091   3.754   8.327   6.819
 7020SOL    HW233092   3.618   8.357   6.733
 7021SOL     OW33093   5.249   3.912   1.183
 7021SOL    HW133094   5.170   3.956   1.226
 7021SOL    HW233095   5.324   3.978   1.175
 7022SOL     OW33096   1.155   3.083   0.986
 7022SOL    HW133097   1.111   3.136   1.058
 7022SOL    HW233098   1.132   3.121   0.896
 7023SOL     OW33099   4.451   6.839   0.856
 7023SOL    HW133100   4.395   6.910   0.899
 7023SOL    HW233101   4.394   6.760   0.833
 7024SOL     OW33102   2.560   2.937   0.984
 7024SOL    HW133103   2.575   2.947   0.886
 7024SOL    HW233104   2.578   3.025   1.029
 7025SOL     OW33105   6.832   7.242   0.908
 7025SOL    HW133106   6.931   7.238   0.892
 7025SOL    HW233107   6.812   7.197   0.995
 7026SOL     OW33108   5.443   6.681   5.833
 7026SOL    HW133109   5.501   6.600   5.838
 7026SOL    HW233110   5.370   6.674   5.901
 7027SOL     OW33111   9.521   1.702   6.044
 7027SOL    HW133112   9.521   1.624   5.981
 7027SOL    HW233113   9.563   1.675   6.131
 7028SOL     OW33114   1.939   4.403   0.899
 7028SOL    HW133115   1.859   4.356   0.862
 7028SOL    HW233116   2.001   4.337   0.939
 7029SOL     OW33117   8.880   0.797   6.439
 7029SOL    HW133118   8.818   0.763   6.368
 7029SOL    HW233119   8.869   0.743   6.522
 7030SOL     OW33120   1.109   0.676   1.496
 7030SOL    HW133121   1.047   0.651   1.570
 7030SOL    HW233122   1.203   0.656   1.523
 7031SOL     OW33123   5.588   7.606   1.673
 7031SOL    HW133124   5.669   7.652   1.709
 7031SOL    HW233125   5.519   7.600   1.745
 7032SOL     OW33126   7.761   6.954   6.639
 7032SOL    HW133127   7.694   6.927   6.570
 7032SOL    HW233128   7.851   6.960   6.597
 7033SOL     OW33129   6.417   4.379   1.319
 7033SOL    HW133130   6.373   4.465   1.293
 7033SOL    HW233131   6.425   4.375   1.418
 7034SOL     OW33132   1.817   3.240   6.536
 7034SOL    HW133133   1.885   3.245   6.610
 7034SOL    HW233134   1.735   3.291   6.562
 7035SOL     OW33135   0.886   8.028   5.627
 7035SOL    HW133136   0.908   8.103   5.689
 7035SOL    HW233137   0.831   7.960   5.675
 7036SOL     OW33138   1.482   8.417   6.109
 7036SOL    HW133139   1.400   8.456   6.068
 7036SOL    HW233140   1.561   8.473   6.083
 7037SOL     OW33141   3.554   0.936   2.430
 7037SOL    HW133142   3.587   0.933   2.524
 7037SOL    HW233143   3.514   0.848   2.405
 7038SOL     OW33144   5.127   5.297   5.952
 7038SOL    HW133145   5.080   5.365   5.896
 7038SOL    HW233146   5.127   5.209   5.904
 7039SOL     OW33147   3.138   4.747   6.518
 7039SOL    HW133148   3.228   4.708   6.501
 7039SOL    HW233149   3.148   4.839   6.555
 7040SOL     OW33150   2.567   3.201   6.336
 7040SOL    HW133151   2.657   3.217   6.377
 7040SOL    HW233152   2.579   3.167   6.242
 7041SOL     OW33153   0.411   4.846   6.634
 7041SOL    HW133154   0.416   4.843   6.734
 7041SOL    HW233155   0.502   4.869   6.597
 7042SOL     OW33156   5.166   6.043   6.741
 7042SOL    HW133157   5.114   6.091   6.670
 7042SOL    HW233158   5.187   6.106   6.815
 7043SOL     OW33159   2.248   1.300   6.350
 7043SOL    HW133160   2.205   1.220   6.391
 7043SOL    HW233161   2.298   1.272   6.267
 7044SOL     OW33162   2.629   7.740   6.068
 7044SOL    HW133163   2.574   7.657   6.077
 7044SOL    HW233164   2.710   7.733   6.126
 7045SOL     OW33165   8.404   6.663   1.169
 7045SOL    HW133166   8.504   6.672   1.161
 7045SOL    HW233167   8.382   6.582   1.222
 7046SOL     OW33168   1.364   1.601   6.492
 7046SOL    HW133169   1.305   1.627   6.416
 7046SOL    HW233170   1.322   1.524   6.541
 7047SOL     OW33171   2.212   6.248   6.378
 7047SOL    HW133172   2.294   6.288   6.337
 7047SOL    HW233173   2.130   6.289   6.336
 7048SOL     OW33174   0.553   6.492   4.290
 7048SOL    HW133175   0.650   6.469   4.291
 7048SOL    HW233176   0.536   6.567   4.354
 7049SOL     OW33177   5.449   2.930   0.787
 7049SOL    HW133178   5.374   2.949   0.724
 7049SOL    HW233179   5.452   2.999   0.859
 7050SOL     OW33180   2.386   7.304   6.845
 7050SOL    HW133181   2.467   7.303   6.904
 7050SOL    HW233182   2.344   7.394   6.846
 7051SOL     OW33183   1.400   5.572   5.245
 7051SOL    HW133184   1.483   5.534   5.203
 7051SOL    HW233185   1.344   5.616   5.175
 7052SOL     OW33186   9.538   3.939   1.820
 7052SOL    HW133187   9.475   4.002   1.774
 7052SOL    HW233188   9.565   3.978   1.908
 7053SOL     OW33189   8.988   5.736   6.314
 7053SOL    HW133190   8.962   5.780   6.229
 7053SOL    HW233191   9.013   5.641   6.296
 7054SOL     OW33192   2.278   7.588   6.819
 7054SOL    HW133193   2.335   7.658   6.861
 7054SOL    HW233194   2.274   7.602   6.720
 7055SOL     OW33195   0.216   2.167   6.694
 7055SOL    HW133196   0.194   2.091   6.756
 7055SOL    HW233197   0.303   2.148   6.648
 7056SOL     OW33198   1.946   0.280   5.439
 7056SOL    HW133199   2.018   0.271   5.370
 7056SOL    HW233200   1.955   0.369   5.484
 7057SOL     OW33201   7.078   5.202   5.139
 7057SOL    HW133202   7.032   5.187   5.051
 7057SOL    HW233203   7.177   5.208   5.124
 7058SOL     OW33204   5.419   7.288   0.356
 7058SOL    HW133205   5.469   7.327   0.280
 7058SOL    HW233206   5.330   7.333   0.365
 7059SOL     OW33207   0.526   3.116   0.369
 7059SOL    HW133208   0.454   3.050   0.393
 7059SOL    HW233209   0.511   3.201   0.419
 7060SOL     OW33210   8.971   4.922   6.021
 7060SOL    HW133211   8.957   4.907   6.119
 7060SOL    HW233212   9.047   4.866   5.989
 7061SOL     OW33213   4.497   8.371   0.887
 7061SOL    HW133214   4.593   8.362   0.860
 7061SOL    HW233215   4.486   8.340   0.982
 7062SOL     OW33216   1.956   2.101   6.077
 7062SOL    HW133217   1.972   2.057   6.165
 7062SOL    HW233218   1.860   2.128   6.070
 7063SOL     OW33219   2.227   0.678   6.899
 7063SOL    HW133220   2.253   0.771   6.921
 7063SOL    HW233221   2.138   0.678   6.853
 7064SOL     OW33222   1.221   5.257   5.712
 7064SOL    HW133223   1.306   5.279   5.664
 7064SOL    HW233224   1.203   5.327   5.781
 7065SOL     OW33225   0.671   1.052   1.145
 7065SOL    HW133226   0.642   0.976   1.087
 7065SOL    HW233227   0.653   1.030   1.241
 7066SOL     OW33228   7.036   6.039   0.256
 7066SOL    HW133229   7.096   6.065   0.332
 7066SOL    HW233230   7.029   6.116   0.192
 7067SOL     OW33231   6.605   8.075   0.642
 7067SOL    HW133232   6.559   8.155   0.604
 7067SOL    HW233233   6.689   8.057   0.589
 7068SOL     OW33234   2.229   5.974   0.993
 7068SOL    HW133235   2.316   5.932   0.969
 7068SOL    HW233236   2.194   5.933   1.077
 7069SOL     OW33237   4.222   7.773   0.295
 7069SOL    HW133238   4.264   7.856   0.258
 7069SOL    HW233239   4.123   7.775   0.278
 7070SOL     OW33240   6.830   1.864   6.622
 7070SOL    HW133241   6.763   1.806   6.575
 7070SOL    HW233242   6.921   1.823   6.612
 7071SOL     OW33243   1.834   3.923   5.847
 7071SOL    HW133244   1.783   3.857   5.793
 7071SOL    HW233245   1.800   4.016   5.827
 7072SOL     OW33246   2.529   0.951   6.888
 7072SOL    HW133247   2.436   0.927   6.916
 7072SOL    HW233248   2.528   1.042   6.845
 7073SOL     OW33249   3.086   7.539   5.496
 7073SOL    HW133250   3.107   7.634   5.522
 7073SOL    HW233251   3.170   7.495   5.463
 7074SOL     OW33252   0.594   5.120   0.927
 7074SOL    HW133253   0.501   5.156   0.938
 7074SOL    HW233254   0.589   5.023   0.904
 7075SOL     OW33255   5.990   2.052   0.543
 7075SOL    HW133256   5.943   2.132   0.579
 7075SOL    HW233257   5.942   1.969   0.570
 7076SOL     OW33258   7.125   0.945   5.840
 7076SOL    HW133259   7.044   0.975   5.891
 7076SOL    HW233260   7.118   0.975   5.745
 7077SOL     OW33261   6.231   6.664   1.419
 7077SOL    HW133262   6.317   6.615   1.404
 7077SOL    HW233263   6.173   6.655   1.337
 7078SOL     OW33264   6.141   2.967   0.800
 7078SOL    HW133265   6.109   2.927   0.886
 7078SOL    HW233266   6.204   3.042   0.819
 7079SOL     OW33267   0.781   8.061   6.006
 7079SOL    HW133268   0.756   8.121   5.929
 7079SOL    HW233269   0.880   8.064   6.019
 7080SOL     OW33270   8.382   7.407   6.963
 7080SOL    HW133271   8.336   7.475   7.020
 7080SOL    HW233272   8.476   7.437   6.944
 7081SOL     OW33273   4.122   2.631   6.820
 7081SOL    HW133274   4.057   2.556   6.814
 7081SOL    HW233275   4.149   2.660   6.728
 7082SOL     OW33276   6.049   0.286   5.670
 7082SOL    HW133277   6.122   0.245   5.616
 7082SOL    HW233278   5.973   0.221   5.679
 7083SOL     OW33279   1.715   7.353   6.284
 7083SOL    HW133280   1.745   7.448   6.268
 7083SOL    HW233281   1.667   7.320   6.203
 7084SOL     OW33282   9.109   2.561   6.872
 7084SOL    HW133283   9.111   2.610   6.959
 7084SOL    HW233284   9.029   2.590   6.819
 7085SOL     OW33285   1.110   4.475   5.844
 7085SOL    HW133286   1.201   4.469   5.885
 7085SOL    HW233287   1.118   4.493   5.746
 7086SOL     OW33288   6.597   1.620   6.944
 7086SOL    HW133289   6.637   1.710   6.960
 7086SOL    HW233290   6.641   1.553   7.005
 7087SOL     OW33291   1.941   6.455   1.241
 7087SOL    HW133292   1.896   6.409   1.165
 7087SOL    HW233293   1.968   6.547   1.212
 7088SOL     OW33294   2.225   5.196   0.874
 7088SOL    HW133295   2.288   5.201   0.951
 7088SOL    HW233296   2.186   5.105   0.868
 7089SOL     OW33297   4.022   1.473   1.793
 7089SOL    HW133298   4.089   1.546   1.787
 7089SOL    HW233299   4.068   1.386   1.813
 7090SOL     OW33300   0.345   6.532   6.033
 7090SOL    HW133301   0.297   6.619   6.036
 7090SOL    HW233302   0.284   6.459   6.065
 7091SOL     OW33303   7.745   7.238   1.624
 7091SOL    HW133304   7.742   7.194   1.713
 7091SOL    HW233305   7.807   7.317   1.627
 7092SOL     OW33306   3.951   0.341   6.407
 7092SOL    HW133307   4.038   0.290   6.407
 7092SOL    HW233308   3.896   0.310   6.485
 7093SOL     OW33309   3.439   4.018   0.481
 7093SOL    HW133310   3.361   3.982   0.531
 7093SOL    HW233311   3.433   4.117   0.475
 7094SOL     OW33312   0.147   8.420   6.407
 7094SOL    HW133313   0.183   8.360   6.479
 7094SOL    HW233314   0.185   8.511   6.418
 7095SOL     OW33315   3.773   1.427   1.378
 7095SOL    HW133316   3.795   1.334   1.409
 7095SOL    HW233317   3.814   1.493   1.442
 7096SOL     OW33318   1.775   4.976   0.680
 7096SOL    HW133319   1.680   4.958   0.702
 7096SOL    HW233320   1.784   4.997   0.582
 7097SOL     OW33321   4.164   5.448   1.143
 7097SOL    HW133322   4.109   5.525   1.176
 7097SOL    HW233323   4.179   5.383   1.217
 7098SOL     OW33324   9.477   7.082   5.177
 7098SOL    HW133325   9.496   7.034   5.091
 7098SOL    HW233326   9.532   7.165   5.182
 7099SOL     OW33327   4.942   4.033   6.594
 7099SOL    HW133328   5.036   4.066   6.586
 7099SOL    HW233329   4.938   3.938   6.563
 7100SOL     OW33330   3.239   5.088   5.875
 7100SOL    HW133331   3.294   5.016   5.918
 7100SOL    HW233332   3.215   5.059   5.782
 7101SOL     OW33333   8.355   2.556   1.601
 7101SOL    HW133334   8.388   2.518   1.688
 7101SOL    HW233335   8.335   2.482   1.538
 7102SOL     OW33336   2.742   7.616   1.324
 7102SOL    HW133337   2.803   7.600   1.402
 7102SOL    HW233338   2.648   7.592   1.350
 7103SOL     OW33339   0.262   2.380   0.940
 7103SOL    HW133340   0.319   2.298   0.943
 7103SOL    HW233341   0.317   2.459   0.969
 7104SOL     OW33342   8.803   7.040   6.113
 7104SOL    HW133343   8.771   6.951   6.078
 7104SOL    HW233344   8.735   7.075   6.178
 7105SOL     OW33345   9.434   2.284   0.321
 7105SOL    HW133346   9.477   2.219   0.385
 7105SOL    HW233347   9.501   2.312   0.252
 7106SOL     OW33348   2.118   3.288   5.326
 7106SOL    HW133349   2.174   3.323   5.250
 7106SOL    HW233350   2.059   3.214   5.293
 7107SOL     OW33351   3.240   7.028   6.300
 7107SOL    HW133352   3.263   6.930   6.294
 7107SOL    HW233353   3.154   7.045   6.252
 7108SOL     OW33354   5.757   8.346   6.378
 7108SOL    HW133355   5.670   8.367   6.333
 7108SOL    HW233356   5.783   8.423   6.436
 7109SOL     OW33357   6.381   6.445   0.952
 7109SOL    HW133358   6.445   6.380   0.911
 7109SOL    HW233359   6.310   6.396   1.001
 7110SOL     OW33360   0.521   6.080   6.052
 7110SOL    HW133361   0.489   6.037   6.137
 7110SOL    HW233362   0.540   6.177   6.069
 7111SOL     OW33363   8.828   7.849   5.825
 7111SOL    HW133364   8.880   7.767   5.848
 7111SOL    HW233365   8.732   7.826   5.812
 7112SOL     OW33366   0.818   2.407   1.667
 7112SOL    HW133367   0.813   2.473   1.742
 7112SOL    HW233368   0.913   2.384   1.648
 7113SOL     OW33369   5.660   4.869   2.155
 7113SOL    HW133370   5.638   4.786   2.206
 7113SOL    HW233371   5.609   4.946   2.192
 7114SOL     OW33372   5.359   4.266   1.512
 7114SOL    HW133373   5.433   4.298   1.453
 7114SOL    HW233374   5.397   4.229   1.597
 7115SOL     OW33375   2.636   3.463   0.459
 7115SOL    HW133376   2.725   3.438   0.497
 7115SOL    HW233377   2.565   3.449   0.528
 7116SOL     OW33378   1.559   2.124   1.200
 7116SOL    HW133379   1.589   2.104   1.293
 7116SOL    HW233380   1.506   2.209   1.200
 7117SOL     OW33381   4.567   1.982   6.135
 7117SOL    HW133382   4.551   1.973   6.037
 7117SOL    HW233383   4.567   2.078   6.161
 7118SOL     OW33384   2.904   7.617   6.844
 7118SOL    HW133385   2.957   7.581   6.921
 7118SOL    HW233386   2.937   7.709   6.821
 7119SOL     OW33387   6.488   7.809   5.338
 7119SOL    HW133388   6.570   7.800   5.394
 7119SOL    HW233389   6.493   7.894   5.285
 7120SOL     OW33390   1.698   7.846   6.267
 7120SOL    HW133391   1.776   7.909   6.264
 7120SOL    HW233392   1.614   7.897   6.249
 7121SOL     OW33393   1.655   3.765   0.727
 7121SOL    HW133394   1.728   3.807   0.781
 7121SOL    HW233395   1.570   3.764   0.780
 7122SOL     OW33396   3.022   2.372   6.054
 7122SOL    HW133397   3.079   2.340   5.978
 7122SOL    HW233398   3.026   2.307   6.129
 7123SOL     OW33399   8.061   1.057   6.483
 7123SOL    HW133400   8.083   1.034   6.389
 7123SOL    HW233401   8.024   0.977   6.530
 7124SOL     OW33402   7.873   2.826   6.403
 7124SOL    HW133403   7.894   2.750   6.342
 7124SOL    HW233404   7.788   2.806   6.453
 7125SOL     OW33405   0.728   6.611   6.633
 7125SOL    HW133406   0.664   6.683   6.660
 7125SOL    HW233407   0.803   6.652   6.581
 7126SOL     OW33408   1.332   1.625   6.000
 7126SOL    HW133409   1.296   1.609   6.092
 7126SOL    HW233410   1.293   1.558   5.937
 7127SOL     OW33411   6.476   1.684   1.776
 7127SOL    HW133412   6.451   1.779   1.758
 7127SOL    HW233413   6.430   1.624   1.711
 7128SOL     OW33414   0.245   2.332   0.463
 7128SOL    HW133415   0.184   2.391   0.515
 7128SOL    HW233416   0.295   2.271   0.525
 7129SOL     OW33417   8.444   0.793   6.298
 7129SOL    HW133418   8.429   0.721   6.366
 7129SOL    HW233419   8.389   0.774   6.216
 7130SOL     OW33420   0.439   7.787   0.658
 7130SOL    HW133421   0.418   7.714   0.724
 7130SOL    HW233422   0.528   7.827   0.680
 7131SOL     OW33423   0.986   0.175   1.458
 7131SOL    HW133424   0.958   0.247   1.395
 7131SOL    HW233425   1.001   0.090   1.406
 7132SOL     OW33426   0.675   2.166   6.122
 7132SOL    HW133427   0.623   2.251   6.118
 7132SOL    HW233428   0.771   2.186   6.142
 7133SOL     OW33429   6.810   0.153   6.307
 7133SOL    HW133430   6.908   0.155   6.292
 7133SOL    HW233431   6.766   0.223   6.250
 7134SOL     OW33432   5.636   8.131   7.245
 7134SOL    HW133433   5.551   8.179   7.223
 7134SOL    HW233434   5.706   8.198   7.270
 7135SOL     OW33435   4.357   4.927  -0.004
 7135SOL    HW133436   4.337   4.853   0.061
 7135SOL    HW233437   4.396   5.004   0.045
 7136SOL     OW33438   7.111   1.742   7.025
 7136SOL    HW133439   7.183   1.763   7.091
 7136SOL    HW233440   7.026   1.785   7.054
 7137SOL     OW33441   4.417   2.080   4.381
 7137SOL    HW133442   4.340   2.049   4.439
 7137SOL    HW233443   4.503   2.056   4.425
 7138SOL     OW33444   9.198   0.381   0.082
 7138SOL    HW133445   9.245   0.469   0.093
 7138SOL    HW233446   9.226   0.318   0.153
 7139SOL     OW33447   3.449   2.052   0.058
 7139SOL    HW133448   3.524   2.056  -0.009
 7139SOL    HW233449   3.372   2.005   0.018
 7140SOL     OW33450   7.391   0.646   7.196
 7140SOL    HW133451   7.294   0.636   7.220
 7140SOL    HW233452   7.430   0.721   7.248
 7141SOL     OW33453   3.513   7.569   7.199
 7141SOL    HW133454   3.594   7.597   7.147
 7141SOL    HW233455   3.542   7.529   7.285
 7142SOL     OW33456   8.985   2.045   0.055
 7142SOL    HW133457   8.945   1.968   0.004
 7142SOL    HW233458   8.912   2.097   0.098
 7143SOL     OW33459   6.074   8.475   7.179
 7143SOL    HW133460   6.021   8.554   7.213
 7143SOL    HW233461   6.012   8.403   7.150
 7144SOL     OW33462   6.706   7.681  -0.012
 7144SOL    HW133463   6.606   7.692  -0.017
 7144SOL    HW233464   6.733   7.676   0.084
 7145SOL     OW33465   0.053   1.310   6.899
 7145SOL    HW133466  -0.035   1.360   6.903
 7145SOL    HW233467   0.123   1.371   6.864
 7146SOL     OW33468   2.723   0.853   7.155
 7146SOL    HW133469   2.759   0.895   7.238
 7146SOL    HW233470   2.768   0.893   7.076
 7147SOL     OW33471   5.915   3.669   7.164
 7147SOL    HW133472   5.990   3.636   7.106
 7147SOL    HW233473   5.864   3.738   7.114
 7148SOL     OW33474   4.656   3.893   7.103
 7148SOL    HW133475   4.573   3.896   7.160
 7148SOL    HW233476   4.676   3.984   7.069
 7149SOL     OW33477   2.429   8.484   7.052
 7149SOL    HW133478   2.516   8.511   7.009
 7149SOL    HW233479   2.445   8.462   7.147
 7150SOL     OW33480   2.182   4.141   4.422
 7150SOL    HW133481   2.210   4.073   4.353
 7150SOL    HW233482   2.113   4.201   4.383
 7151SOL     OW33483   4.824   7.612   7.145
 7151SOL    HW133484   4.739   7.656   7.175
 7151SOL    HW233485   4.809   7.515   7.131
 7152SOL     OW33486   8.467   7.805   7.220
 7152SOL    HW133487   8.503   7.866   7.148
 7152SOL    HW233488   8.463   7.712   7.185
 7153SOL     OW33489   5.516   6.902   7.235
 7153SOL    HW133490   5.549   6.812   7.204
 7153SOL    HW233491   5.592   6.966   7.236
 7154SOL     OW33492   7.775   0.435   4.250
 7154SOL    HW133493   7.850   0.404   4.192
 7154SOL    HW233494   7.769   0.534   4.247
 7155SOL     OW33495   5.923   5.803   0.111
 7155SOL    HW133496   5.973   5.717   0.118
 7155SOL    HW233497   5.941   5.858   0.192
 7156SOL     OW33498   5.047   1.924  -0.036
 7156SOL    HW133499   5.085   2.000   0.017
 7156SOL    HW233500   5.038   1.844   0.022
 7157SOL     OW33501   4.754   1.963   3.533
 7157SOL    HW133502   4.818   1.887   3.548
 7157SOL    HW233503   4.787   2.019   3.458
 7158SOL     OW33504   1.088   4.386   7.221
 7158SOL    HW133505   0.988   4.387   7.233
 7158SOL    HW233506   1.117   4.294   7.195
 7159SOL     OW33507   8.874   4.289   0.000
 7159SOL    HW133508   8.813   4.210   0.006
 7159SOL    HW233509   8.906   4.313   0.091
 7160SOL     OW33510   6.690   2.784   0.237
 7160SOL    HW133511   6.625   2.855   0.267
 7160SOL    HW233512   6.664   2.697   0.277
 7161SOL     OW33513   1.665   3.432   0.054
 7161SOL    HW133514   1.712   3.355   0.099
 7161SOL    HW233515   1.662   3.509   0.116
 7162SOL     OW33516   5.401   5.895   0.072
 7162SOL    HW133517   5.356   5.842   0.145
 7162SOL    HW233518   5.490   5.926   0.103
 7163SOL     OW33519   8.897   5.572   0.020
 7163SOL    HW133520   8.932   5.614   0.104
 7163SOL    HW233521   8.811   5.617  -0.005
 7164SOL     OW33522   8.591   6.948   7.086
 7164SOL    HW133523   8.536   6.982   7.164
 7164SOL    HW233524   8.641   6.867   7.114
 7165SOL     OW33525   4.745   0.443   4.737
 7165SOL    HW133526   4.691   0.506   4.680
 7165SOL    HW233527   4.814   0.400   4.680
 7166SOL     OW33528   0.120   0.119  -0.021
 7166SOL    HW133529   0.193   0.151   0.041
 7166SOL    HW233530   0.032   0.129   0.025
 7167SOL     OW33531   2.823   3.876   7.046
 7167SOL    HW133532   2.752   3.890   7.116
 7167SOL    HW233533   2.905   3.838   7.089
 7168SOL     OW33534   3.083   0.682   0.060
 7168SOL    HW133535   2.998   0.690   0.114
 7168SOL    HW233536   3.129   0.598   0.085
 7169SOL     OW33537   3.068   3.874   0.081
 7169SOL    HW133538   3.078   3.834  -0.011
 7169SOL    HW233539   2.972   3.877   0.106
 7170SOL     OW33540   6.714   1.716   0.067
 7170SOL    HW133541   6.741   1.658  -0.011
 7170SOL    HW233542   6.615   1.715   0.076
 7171SOL     OW33543   6.953   3.372   7.085
 7171SOL    HW133544   6.904   3.460   7.082
 7171SOL    HW233545   6.985   3.355   7.178
 7172SOL     OW33546   7.210   0.950   3.367
 7172SOL    HW133547   7.203   1.041   3.411
 7172SOL    HW233548   7.192   0.880   3.435
 7173SOL     OW33549   4.101   3.080   7.197
 7173SOL    HW133550   4.016   3.130   7.174
 7173SOL    HW233551   4.179   3.136   7.173
 7174SOL     OW33552   6.327   8.287  -0.004
 7174SOL    HW133553   6.226   8.284  -0.008
 7174SOL    HW233554   6.360   8.205   0.040
 7175SOL     OW33555   3.467   6.633   0.087
 7175SOL    HW133556   3.526   6.693   0.141
 7175SOL    HW233557   3.416   6.687   0.020
 7176SOL     OW33558   5.313   5.068   7.152
 7176SOL    HW133559   5.411   5.050   7.168
 7176SOL    HW233560   5.295   5.165   7.169
 7177SOL     OW33561   1.323   1.439   3.475
 7177SOL    HW133562   1.240   1.490   3.452
 7177SOL    HW233563   1.304   1.377   3.551
 7178SOL     OW33564   3.284   8.382   7.124
 7178SOL    HW133565   3.357   8.344   7.182
 7178SOL    HW233566   3.258   8.472   7.157
 7179SOL     OW33567   4.070   4.694   7.229
 7179SOL    HW133568   4.156   4.674   7.276
 7179SOL    HW233569   4.067   4.790   7.204
 7180SOL     OW33570   8.226   1.203   4.504
 7180SOL    HW133571   8.167   1.122   4.507
 7180SOL    HW233572   8.317   1.179   4.537
 7181SOL     OW33573   6.935   3.878   4.306
 7181SOL    HW133574   6.993   3.812   4.259
 7181SOL    HW233575   6.857   3.901   4.248
 7182SOL     OW33576   7.829   6.834   0.134
 7182SOL    HW133577   7.740   6.790   0.115
 7182SOL    HW233578   7.878   6.847   0.049
 7183SOL     OW33579   7.952   7.193   0.140
 7183SOL    HW133580   8.008   7.214   0.221
 7183SOL    HW233581   7.880   7.261   0.131
 7184SOL     OW33582   6.348   7.759   7.118
 7184SOL    HW133583   6.351   7.831   7.188
 7184SOL    HW233584   6.259   7.715   7.121
 7185SOL     OW33585   4.129   0.526   0.013
 7185SOL    HW133586   4.102   0.591   0.085
 7185SOL    HW233587   4.152   0.439   0.054
 7186SOL     OW33588   1.880   4.304   0.044
 7186SOL    HW133589   1.813   4.356  -0.009
 7186SOL    HW233590   1.959   4.284  -0.013
 7187SOL     OW33591   4.434   3.337   3.482
 7187SOL    HW133592   4.503   3.331   3.555
 7187SOL    HW233593   4.356   3.389   3.514
 7188SOL     OW33594   5.825   5.106   0.146
 7188SOL    HW133595   5.832   5.021   0.093
 7188SOL    HW233596   5.834   5.183   0.084
 7189SOL     OW33597   3.875   7.893   0.029
 7189SOL    HW133598   3.783   7.855   0.015
 7189SOL    HW233599   3.935   7.821   0.063
 7190SOL     OW33600   0.864   1.338   0.123
 7190SOL    HW133601   0.910   1.399   0.057
 7190SOL    HW233602   0.833   1.256   0.076
 7191SOL     OW33603   8.029   6.180   7.101
 7191SOL    HW133604   7.990   6.131   7.180
 7191SOL    HW233605   8.010   6.278   7.110
 7192SOL     OW33606   0.037   2.760   0.082
 7192SOL    HW133607   0.073   2.678   0.128
 7192SOL    HW233608  -0.054   2.780   0.117
 7193SOL     OW33609   7.533   1.831   0.024
 7193SOL    HW133610   7.445   1.877   0.040
 7193SOL    HW233611   7.532   1.741   0.065
 7194SOL     OW33612   4.652   0.813   7.198
 7194SOL    HW133613   4.634   0.877   7.123
 7194SOL    HW233614   4.708   0.738   7.164
 7195SOL     OW33615   4.046   0.084   7.215
 7195SOL    HW133616   4.058   0.157   7.147
 7195SOL    HW233617   4.120   0.018   7.206
 7196SOL     OW33618   5.952   0.327   0.128
 7196SOL    HW133619   6.001   0.410   0.157
 7196SOL    HW233620   5.898   0.293   0.204
 7197SOL     OW33621   8.543   6.450   0.002
 7197SOL    HW133622   8.576   6.382   0.069
 7197SOL    HW233623   8.547   6.541   0.043
 7198SOL     OW33624   7.268   5.417   0.051
 7198SOL    HW133625   7.222   5.400  -0.037
 7198SOL    HW233626   7.349   5.473   0.036
 7199SOL     OW33627   8.408   3.405   7.135
 7199SOL    HW133628   8.488   3.374   7.187
 7199SOL    HW233629   8.371   3.328   7.084
 7200SOL     OW33630   4.691   0.405   7.167
 7200SOL    HW133631   4.645   0.458   7.239
 7200SOL    HW233632   4.698   0.310   7.196
 7201SOL     OW33633   3.141   2.120   7.175
 7201SOL    HW133634   3.131   2.064   7.092
 7201SOL    HW233635   3.130   2.216   7.151
 7202SOL     OW33636   5.332   7.365   0.000
 7202SOL    HW133637   5.293   7.445   0.046
 7202SOL    HW233638   5.340   7.290   0.066
 7203SOL     OW33639   4.220   6.866   0.150
 7203SOL    HW133640   4.131   6.820   0.155
 7203SOL    HW233641   4.222   6.927   0.072
 7204SOL     OW33642   7.168   1.939   0.052
 7204SOL    HW133643   7.097   1.988   0.000
 7204SOL    HW233644   7.255   1.986   0.041
 7205SOL     OW33645   6.713   1.370   7.174
 7205SOL    HW133646   6.681   1.310   7.100
 7205SOL    HW233647   6.810   1.389   7.160
 7206SOL     OW33648   8.827   5.939   7.159
 7206SOL    HW133649   8.782   6.008   7.216
 7206SOL    HW233650   8.919   5.969   7.138
 7207SOL     OW33651   7.422   7.838   0.146
 7207SOL    HW133652   7.354   7.803   0.080
 7207SOL    HW233653   7.378   7.903   0.206
 7208SOL     OW33654   5.244   2.477   7.091
 7208SOL    HW133655   5.147   2.498   7.111
 7208SOL    HW233656   5.248   2.409   7.019
 7209SOL     OW33657   4.638   0.029   7.244
 7209SOL    HW133658   4.602   0.092   7.174
 7209SOL    HW233659   4.716  -0.021   7.207
 7210SOL     OW33660   0.859   2.884   7.076
 7210SOL    HW133661   0.803   2.857   7.156
 7210SOL    HW233662   0.825   2.970   7.040
 7211SOL     OW33663   4.862   6.645   7.022
 7211SOL    HW133664   4.913   6.728   7.045
 7211SOL    HW233665   4.821   6.608   7.105
 7212SOL     OW33666   1.663   1.710   7.235
 7212SOL    HW133667   1.598   1.716   7.159
 7212SOL    HW233668   1.654   1.790   7.293
 7213SOL     OW33669   4.080   2.126   1.502
 7213SOL    HW133670   4.169   2.149   1.543
 7213SOL    HW233671   4.064   2.028   1.510
 7214SOL     OW33672   7.734   6.039   7.222
 7214SOL    HW133673   7.767   6.066   7.313
 7214SOL    HW233674   7.689   6.117   7.179
 7215SOL     OW33675   9.383   3.759   7.002
 7215SOL    HW133676   9.293   3.740   7.041
 7215SOL    HW233677   9.448   3.774   7.075
 7216SOL     OW33678   2.501   4.126   0.013
 7216SOL    HW133679   2.424   4.184  -0.014
 7216SOL    HW233680   2.476   4.030   0.002
 7217SOL     OW33681   1.957   3.080   7.079
 7217SOL    HW133682   1.947   2.983   7.107
 7217SOL    HW233683   2.028   3.122   7.134
 7218SOL     OW33684   1.842   1.963   7.166
 7218SOL    HW133685   1.908   2.021   7.214
 7218SOL    HW233686   1.883   1.928   7.082
 7219SOL     OW33687   8.165   5.719   7.168
 7219SOL    HW133688   8.218   5.770   7.237
 7219SOL    HW233689   8.070   5.718   7.195
 7220SOL     OW33690   2.954   0.004   3.672
 7220SOL    HW133691   2.969  -0.025   3.767
 7220SOL    HW233692   2.872   0.059   3.666
 7221SOL     OW33693   2.395   2.438   7.120
 7221SOL    HW133694   2.335   2.457   7.041
 7221SOL    HW233695   2.488   2.467   7.098
 7222SOL     OW33696   8.862   2.905   3.560
 7222SOL    HW133697   8.865   2.805   3.555
 7222SOL    HW233698   8.887   2.943   3.472
 7223SOL     OW33699   2.206   7.602   0.081
 7223SOL    HW133700   2.140   7.620   0.154
 7223SOL    HW233701   2.275   7.673   0.081
 7224SOL     OW33702   4.414   7.746   7.223
 7224SOL    HW133703   4.433   7.653   7.191
 7224SOL    HW233704   4.316   7.763   7.220
 7225SOL     OW33705   4.008   6.892   7.125
 7225SOL    HW133706   3.947   6.825   7.083
 7225SOL    HW233707   3.973   6.984   7.107
 7226SOL     OW33708   3.528   6.930   7.149
 7226SOL    HW133709   3.521   7.022   7.108
 7226SOL    HW233710   3.473   6.927   7.231
 7227SOL     OW33711   8.598   7.487   0.162
 7227SOL    HW133712   8.566   7.437   0.082
 7227SOL    HW233713   8.656   7.563   0.132
 7228SOL     OW33714   8.237   1.378   3.536
 7228SOL    HW133715   8.242   1.354   3.439
 7228SOL    HW233716   8.149   1.420   3.555
 7229SOL     OW33717   8.915   1.203  -0.002
 7229SOL    HW133718   8.820   1.230   0.013
 7229SOL    HW233719   8.974   1.258   0.057
 7230SOL     OW33720   7.535   6.419   0.156
 7230SOL    HW133721   7.503   6.501   0.108
 7230SOL    HW233722   7.600   6.371   0.098
 7231SOL     OW33723   8.175   6.735   7.206
 7231SOL    HW133724   8.207   6.664   7.144
 7231SOL    HW233725   8.111   6.795   7.158
 7232SOL     OW33726   3.161   2.873   0.125
 7232SOL    HW133727   3.140   2.777   0.142
 7232SOL    HW233728   3.080   2.920   0.092
 7233SOL     OW33729   5.657   4.791   0.215
 7233SOL    HW133730   5.670   4.771   0.118
 7233SOL    HW233731   5.561   4.775   0.239
 7234SOL     OW33732   3.346   4.975   0.010
 7234SOL    HW133733   3.340   5.063   0.057
 7234SOL    HW233734   3.317   4.902   0.071
 7235SOL     OW33735   8.363   2.283   0.044
 7235SOL    HW133736   8.392   2.356  -0.018
 7235SOL    HW233737   8.283   2.312   0.095
 7236SOL     OW33738   0.455   7.977  -0.014
 7236SOL    HW133739   0.498   8.066   0.008
 7236SOL    HW233740   0.393   7.951   0.059
 7237SOL     OW33741   4.105   2.471   7.113
 7237SOL    HW133742   4.160   2.528   7.050
 7237SOL    HW233743   4.094   2.381   7.074
 7238SOL     OW33744   8.402   1.939   7.205
 7238SOL    HW133745   8.489   1.937   7.255
 7238SOL    HW233746   8.408   2.005   7.131
 7239SOL     OW33747   6.072   7.877   0.157
 7239SOL    HW133748   6.018   7.800   0.121
 7239SOL    HW233749   6.098   7.937   0.082
 7240SOL     OW33750   7.734   8.450   0.116
 7240SOL    HW133751   7.685   8.504   0.046
 7240SOL    HW233752   7.808   8.400   0.074
 7241SOL     OW33753   0.596   4.923   7.172
 7241SOL    HW133754   0.500   4.941   7.148
 7241SOL    HW233755   0.616   4.964   7.261
 7242SOL     OW33756   8.353   8.231   7.197
 7242SOL    HW133757   8.336   8.140   7.235
 7242SOL    HW233758   8.267   8.270   7.167
 7243SOL     OW33759   7.757   4.352   7.214
 7243SOL    HW133760   7.772   4.426   7.280
 7243SOL    HW233761   7.673   4.304   7.237
 7244SOL     OW33762   0.425   5.715   7.217
 7244SOL    HW133763   0.371   5.638   7.183
 7244SOL    HW233764   0.517   5.684   7.237
 7245SOL     OW33765   5.671   3.327   7.279
 7245SOL    HW133766   5.623   3.298   7.196
 7245SOL    HW233767   5.709   3.418   7.265
 7246SOL     OW33768   7.115   1.565   3.532
 7246SOL    HW133769   7.082   1.472   3.515
 7246SOL    HW233770   7.210   1.561   3.562
 7247SOL     OW33771   5.728   6.872   5.997
 7247SOL    HW133772   5.772   6.810   6.062
 7247SOL    HW233773   5.635   6.891   6.027
 7248SOL     OW33774   3.669   3.916   0.180
 7248SOL    HW133775   3.633   3.888   0.269
 7248SOL    HW233776   3.604   3.893   0.109
 7249SOL     OW33777   2.405   7.074   7.174
 7249SOL    HW133778   2.353   7.047   7.255
 7249SOL    HW233779   2.357   7.146   7.125
 7250SOL     OW33780   0.995   3.801   7.148
 7250SOL    HW133781   1.072   3.810   7.085
 7250SOL    HW233782   0.968   3.705   7.153
 7251SOL     OW33783   4.562   3.542   3.703
 7251SOL    HW133784   4.465   3.529   3.683
 7251SOL    HW233785   4.574   3.556   3.801
 7252SOL     OW33786   7.197   7.223   2.391
 7252SOL    HW133787   7.210   7.144   2.331
 7252SOL    HW233788   7.277   7.282   2.386
 7253SOL     OW33789   0.031   1.708   7.128
 7253SOL    HW133790   0.072   1.654   7.201
 7253SOL    HW233791  -0.049   1.756   7.163
 7254SOL     OW33792   6.084   4.438   3.965
 7254SOL    HW133793   6.157   4.373   3.942
 7254SOL    HW233794   6.124   4.518   4.009
 7255SOL     OW33795   1.133   1.023   3.646
 7255SOL    HW133796   1.100   1.073   3.564
 7255SOL    HW233797   1.138   0.926   3.625
 7256SOL     OW33798   7.526   7.553   7.252
 7256SOL    HW133799   7.554   7.582   7.160
 7256SOL    HW233800   7.507   7.455   7.251
 7257SOL     OW33801   5.445   0.319   7.135
 7257SOL    HW133802   5.486   0.358   7.217
 7257SOL    HW233803   5.491   0.234   7.112
 7258SOL     OW33804   4.025   5.758   3.329
 7258SOL    HW133805   4.011   5.662   3.303
 7258SOL    HW233806   4.121   5.771   3.352
 7259SOL     OW33807   3.760   6.357   7.159
 7259SOL    HW133808   3.665   6.361   7.190
 7259SOL    HW233809   3.799   6.449   7.160
 7260SOL     OW33810   2.890   2.563   7.271
 7260SOL    HW133811   2.875   2.482   7.214
 7260SOL    HW233812   2.958   2.622   7.227
 7261SOL     OW33813   5.613   8.438   7.230
 7261SOL    HW133814   5.519   8.474   7.236
 7261SOL    HW233815   5.673   8.508   7.196
 7262SOL     OW33816   1.959   6.850   3.200
 7262SOL    HW133817   1.895   6.911   3.247
 7262SOL    HW233818   2.045   6.849   3.248
 7263SOL     OW33819   8.221   5.864   3.120
 7263SOL    HW133820   8.166   5.842   3.200
 7263SOL    HW233821   8.309   5.899   3.149
 7264SOL     OW33822   0.595   0.905   0.045
 7264SOL    HW133823   0.545   0.892  -0.041
 7264SOL    HW233824   0.538   0.875   0.121
 7265SOL     OW33825   2.823   7.073   7.070
 7265SOL    HW133826   2.757   7.076   7.146
 7265SOL    HW233827   2.877   6.990   7.077
 7266SOL     OW33828   5.804   4.138   0.162
 7266SOL    HW133829   5.844   4.049   0.185
 7266SOL    HW233830   5.705   4.132   0.164
 7267SOL     OW33831   0.386   3.991   7.259
 7267SOL    HW133832   0.359   3.952   7.171
 7267SOL    HW233833   0.401   4.089   7.249
 7268SOL     OW33834   0.526   0.093   3.087
 7268SOL    HW133835   0.497   0.156   3.014
 7268SOL    HW233836   0.602   0.037   3.055
 7269SOL     OW33837   0.608   4.195   3.251
 7269SOL    HW133838   0.669   4.233   3.181
 7269SOL    HW233839   0.628   4.098   3.262
 7270SOL     OW33840   2.906   0.961   4.430
 7270SOL    HW133841   2.972   0.911   4.487
 7270SOL    HW233842   2.874   1.041   4.480
 7271SOL     OW33843   6.664   6.684   7.148
 7271SOL    HW133844   6.734   6.721   7.209
 7271SOL    HW233845   6.580   6.670   7.199
 7272SOL     OW33846   6.909   2.575   7.109
 7272SOL    HW133847   6.897   2.669   7.078
 7272SOL    HW233848   6.827   2.545   7.156
 7273SOL     OW33849   3.012   0.425   7.130
 7273SOL    HW133850   2.957   0.356   7.178
 7273SOL    HW233851   3.079   0.379   7.073
 7274SOL     OW33852   0.711   2.380  -0.025
 7274SOL    HW133853   0.694   2.342   0.066
 7274SOL    HW233854   0.659   2.465  -0.035
 7275SOL     OW33855   2.840   3.241   7.119
 7275SOL    HW133856   2.890   3.192   7.047
 7275SOL    HW233857   2.742   3.227   7.107
 7276SOL     OW33858   0.090   3.735   0.122
 7276SOL    HW133859   0.118   3.672   0.049
 7276SOL    HW233860   0.059   3.820   0.081
 7277SOL     OW33861   8.887   1.571   6.986
 7277SOL    HW133862   8.896   1.472   6.974
 7277SOL    HW233863   8.978   1.612   6.986
 7278SOL     OW33864   3.791   8.208   3.852
 7278SOL    HW133865   3.879   8.231   3.894
 7278SOL    HW233866   3.736   8.291   3.843
 7279SOL     OW33867   3.141   3.211  -0.031
 7279SOL    HW133868   3.166   3.140   0.035
 7279SOL    HW233869   3.147   3.300   0.012
 7280SOL     OW33870   4.447   2.309   0.033
 7280SOL    HW133871   4.393   2.225   0.038
 7280SOL    HW233872   4.469   2.329  -0.062
 7281SOL     OW33873   4.790   5.463   0.029
 7281SOL    HW133874   4.822   5.399  -0.041
 7281SOL    HW233875   4.858   5.470   0.101
 7282SOL     OW33876   5.593   0.864   0.072
 7282SOL    HW133877   5.571   0.782   0.019
 7282SOL    HW233878   5.622   0.936   0.010
 7283SOL     OW33879   6.089   2.459   3.250
 7283SOL    HW133880   6.005   2.405   3.244
 7283SOL    HW233881   6.168   2.400   3.242
 7284SOL     OW33882   6.334   1.143   0.084
 7284SOL    HW133883   6.254   1.136   0.024
 7284SOL    HW233884   6.309   1.189   0.168
 7285SOL     OW33885   0.655   1.638  -0.019
 7285SOL    HW133886   0.729   1.645   0.049
 7285SOL    HW233887   0.570   1.671   0.021
 7286SOL     OW33888   5.763   2.846   7.126
 7286SOL    HW133889   5.688   2.858   7.191
 7286SOL    HW233890   5.816   2.766   7.151
 7287SOL     OW33891   3.141   6.637   0.059
 7287SOL    HW133892   3.110   6.562  -0.000
 7287SOL    HW233893   3.100   6.722   0.028
 7288SOL     OW33894   9.213   4.340  -0.026
 7288SOL    HW133895   9.132   4.369   0.025
 7288SOL    HW233896   9.292   4.340   0.035
 7289SOL     OW33897   8.812   0.565   7.268
 7289SOL    HW133898   8.787   0.475   7.232
 7289SOL    HW233899   8.752   0.634   7.229
 7290SOL     OW33900   7.066   4.351   3.241
 7290SOL    HW133901   7.135   4.374   3.311
 7290SOL    HW233902   7.103   4.281   3.181
 7291SOL     OW33903   7.364   5.173   7.131
 7291SOL    HW133904   7.276   5.142   7.168
 7291SOL    HW233905   7.405   5.100   7.078
 7292SOL     OW33906   7.219   5.939   7.201
 7292SOL    HW133907   7.309   5.983   7.201
 7292SOL    HW233908   7.182   5.939   7.293
 7293SOL     OW33909   7.892   1.321   6.224
 7293SOL    HW133910   7.885   1.379   6.306
 7293SOL    HW233911   7.835   1.241   6.235
 7294SOL     OW33912   7.239   3.730   0.237
 7294SOL    HW133913   7.212   3.777   0.152
 7294SOL    HW233914   7.316   3.670   0.219
 7295SOL     OW33915   5.429   2.811   0.026
 7295SOL    HW133916   5.367   2.769  -0.042
 7295SOL    HW233917   5.379   2.880   0.077
 7296SOL     OW33918   8.371   0.177   7.256
 7296SOL    HW133919   8.403   0.100   7.199
 7296SOL    HW233920   8.306   0.231   7.204
 7297SOL     OW33921   8.666   3.207   4.651
 7297SOL    HW133922   8.592   3.174   4.592
 7297SOL    HW233923   8.665   3.307   4.651
 7298SOL     OW33924   9.358   3.212   7.154
 7298SOL    HW133925   9.263   3.206   7.185
 7298SOL    HW233926   9.407   3.278   7.209
 7299SOL     OW33927   9.369   8.378   4.360
 7299SOL    HW133928   9.444   8.441   4.381
 7299SOL    HW233929   9.294   8.394   4.422
 7300SOL     OW33930   4.039   4.302   7.064
 7300SOL    HW133931   4.030   4.237   7.140
 7300SOL    HW233932   3.949   4.338   7.042
 7301SOL     OW33933   0.041   3.396   3.500
 7301SOL    HW133934   0.046   3.296   3.490
 7301SOL    HW233935   0.058   3.439   3.412
 7302SOL     OW33936   0.923   5.917   7.087
 7302SOL    HW133937   0.961   5.945   6.998
 7302SOL    HW233938   0.946   5.821   7.104
 7303SOL     OW33939   9.225   5.718   7.212
 7303SOL    HW133940   9.251   5.690   7.305
 7303SOL    HW233941   9.197   5.638   7.160
 7304SOL     OW33942   7.329   3.711   7.155
 7304SOL    HW133943   7.312   3.651   7.233
 7304SOL    HW233944   7.389   3.786   7.183
 7305SOL     OW33945   7.418   1.363   7.119
 7305SOL    HW133946   7.481   1.344   7.195
 7305SOL    HW233947   7.397   1.278   7.072
 7306SOL     OW33948   1.370   6.087   7.256
 7306SOL    HW133949   1.468   6.102   7.238
 7306SOL    HW233950   1.322   6.077   7.169
 7307SOL     OW33951   2.410   5.916   7.197
 7307SOL    HW133952   2.466   5.921   7.114
 7307SOL    HW233953   2.321   5.879   7.174
 7308SOL     OW33954   1.993   1.356   3.502
 7308SOL    HW133955   2.051   1.423   3.455
 7308SOL    HW233956   1.966   1.285   3.439
 7309SOL     OW33957   8.189   2.525   7.212
 7309SOL    HW133958   8.115   2.471   7.171
 7309SOL    HW233959   8.254   2.550   7.141
 7310SOL     OW33960   5.547   0.003   3.883
 7310SOL    HW133961   5.594  -0.040   3.961
 7310SOL    HW233962   5.610   0.064   3.837
 7311SOL     OW33963   3.811   4.994   0.123
 7311SOL    HW133964   3.718   4.964   0.145
 7311SOL    HW233965   3.869   4.915   0.109
 7312SOL     OW33966   2.862   5.784   7.131
 7312SOL    HW133967   2.868   5.694   7.088
 7312SOL    HW233968   2.907   5.782   7.220
 7313SOL     OW33969   5.087   1.724   3.896
 7313SOL    HW133970   5.069   1.682   3.985
 7313SOL    HW233971   5.162   1.789   3.904
 7314SOL     OW33972   7.120   4.023   4.157
 7314SOL    HW133973   7.078   4.111   4.136
 7314SOL    HW233974   7.207   4.037   4.202
 7315SOL     OW33975   9.424   2.886   3.231
 7315SOL    HW133976   9.461   2.979   3.248
 7315SOL    HW233977   9.345   2.892   3.172
 7316SOL     OW33978   2.313   1.999   0.107
 7316SOL    HW133979   2.265   1.911   0.110
 7316SOL    HW233980   2.348   2.021   0.197
 7317SOL     OW33981   7.784   0.790   0.074
 7317SOL    HW133982   7.736   0.759  -0.009
 7317SOL    HW233983   7.838   0.715   0.110
 7318SOL     OW33984   1.359   6.486   7.143
 7318SOL    HW133985   1.322   6.556   7.081
 7318SOL    HW233986   1.292   6.414   7.156
 7319SOL     OW33987   8.279   4.850   0.035
 7319SOL    HW133988   8.259   4.947   0.053
 7319SOL    HW233989   8.286   4.802   0.121
 7320SOL     OW33990   9.330   2.077   7.162
 7320SOL    HW133991   9.313   2.163   7.112
 7320SOL    HW233992   9.415   2.037   7.130
 7321SOL     OW33993   8.044   0.135   7.185
 7321SOL    HW133994   8.025   0.103   7.091
 7321SOL    HW233995   8.068   0.057   7.242
 7322SOL     OW33996   7.241   8.444   0.035
 7322SOL    HW133997   7.154   8.488   0.008
 7322SOL    HW233998   7.274   8.485   0.119
 7323SOL     OW33999   8.818   0.169   0.004
 7323SOL    HW134000   8.868   0.141   0.086
 7323SOL    HW234001   8.752   0.239   0.029
 7324SOL     OW34002   3.740   2.593   7.128
 7324SOL    HW134003   3.702   2.685   7.147
 7324SOL    HW234004   3.740   2.541   7.213
 7325SOL     OW34005   0.178   3.676   3.176
 7325SOL    HW134006   0.231   3.725   3.106
 7325SOL    HW234007   0.091   3.723   3.190
 7326SOL     OW34008   7.178   4.691   7.131
 7326SOL    HW134009   7.246   4.652   7.068
 7326SOL    HW234010   7.111   4.621   7.154
 7327SOL     OW34011   7.861   3.743   7.215
 7327SOL    HW134012   7.912   3.675   7.268
 7327SOL    HW234013   7.925   3.804   7.169
 7328SOL     OW34014   6.254   2.562   7.197
 7328SOL    HW134015   6.169   2.599   7.235
 7328SOL    HW234016   6.268   2.598   7.106
 7329SOL     OW34017   8.302   4.169   3.632
 7329SOL    HW134018   8.219   4.142   3.582
 7329SOL    HW234019   8.314   4.267   3.624
 7330SOL     OW34020   2.593   1.750   7.196
 7330SOL    HW134021   2.496   1.739   7.171
 7330SOL    HW234022   2.624   1.667   7.242
 7331SOL     OW34023   3.640   1.238   0.073
 7331SOL    HW134024   3.541   1.224   0.058
 7331SOL    HW234025   3.686   1.240  -0.015
 7332SOL     OW34026   1.830   0.722   6.095
 7332SOL    HW134027   1.855   0.647   6.033
 7332SOL    HW234028   1.871   0.707   6.184
 7333SOL     OW34029   7.974   5.012   0.051
 7333SOL    HW134030   8.033   4.947   0.003
 7333SOL    HW234031   7.977   5.100   0.004
 7334SOL     OW34032   0.384   1.377   7.161
 7334SOL    HW134033   0.360   1.448   7.094
 7334SOL    HW234034   0.347   1.290   7.131
 7335SOL     OW34035   6.012   1.009   0.049
 7335SOL    HW134036   5.925   1.026   0.001
 7335SOL    HW234037   5.992   0.982   0.143
 7336SOL     OW34038   3.137   7.183   7.072
 7336SOL    HW134039   3.234   7.178   7.100
 7336SOL    HW234040   3.112   7.100   7.024
 7337SOL     OW34041   8.508   1.419   3.836
 7337SOL    HW134042   8.513   1.346   3.767
 7337SOL    HW234043   8.461   1.497   3.797
 7338SOL     OW34044   8.532   5.832   0.119
 7338SOL    HW134045   8.436   5.805   0.106
 7338SOL    HW234046   8.584   5.811   0.037
 7339SOL     OW34047   7.848   0.800   3.377
 7339SOL    HW134048   7.905   0.750   3.442
 7339SOL    HW234049   7.888   0.890   3.361
 7340SOL     OW34050   5.314   2.456   3.766
 7340SOL    HW134051   5.388   2.520   3.743
 7340SOL    HW234052   5.227   2.495   3.737
 7341SOL     OW34053   1.514   4.381   7.208
 7341SOL    HW134054   1.552   4.449   7.145
 7341SOL    HW234055   1.484   4.301   7.157
 7342SOL     OW34056   8.219   5.322   0.078
 7342SOL    HW134057   8.214   5.387   0.001
 7342SOL    HW234058   8.156   5.247   0.061
 7343SOL     OW34059   4.475   5.579   7.188
 7343SOL    HW134060   4.423   5.605   7.270
 7343SOL    HW234061   4.569   5.612   7.197
 7344SOL     OW34062   9.191   1.085   7.110
 7344SOL    HW134063   9.168   1.032   7.192
 7344SOL    HW234064   9.290   1.088   7.101
 7345SOL     OW34065   0.965   1.436   3.093
 7345SOL    HW134066   0.995   1.457   2.999
 7345SOL    HW234067   0.890   1.372   3.090
 7346SOL     OW34068   3.565   5.855   7.189
 7346SOL    HW134069   3.615   5.923   7.135
 7346SOL    HW234070   3.550   5.774   7.134
 7347SOL     OW34071   2.366   0.352   0.254
 7347SOL    HW134072   2.361   0.411   0.173
 7347SOL    HW234073   2.278   0.307   0.267
 7348SOL     OW34074   3.830   0.669   7.256
 7348SOL    HW134075   3.894   0.650   7.181
 7348SOL    HW234076   3.737   0.666   7.222
 7349SOL     OW34077   0.300   6.377   2.873
 7349SOL    HW134078   0.200   6.367   2.873
 7349SOL    HW234079   0.341   6.288   2.854
 7350SOL     OW34080   1.198   2.519   0.031
 7350SOL    HW134081   1.188   2.593  -0.037
 7350SOL    HW234082   1.278   2.464   0.009
 7351SOL     OW34083   0.549   6.119   3.150
 7351SOL    HW134084   0.522   6.188   3.218
 7351SOL    HW234085   0.528   6.028   3.185
 7352SOL     OW34086   7.504   2.256   0.048
 7352SOL    HW134087   7.447   2.214   0.119
 7352SOL    HW234088   7.598   2.228   0.061
 7353SOL     OW34089   1.726   0.407   0.058
 7353SOL    HW134090   1.744   0.369   0.149
 7353SOL    HW234091   1.789   0.482   0.041
 7354SOL     OW34092   4.717   4.445   7.195
 7354SOL    HW134093   4.645   4.383   7.229
 7354SOL    HW234094   4.795   4.391   7.164
 7355SOL     OW34095   4.413   6.096   7.215
 7355SOL    HW134096   4.442   6.017   7.161
 7355SOL    HW234097   4.398   6.068   7.309
 7356SOL     OW34098   8.932   2.588   7.125
 7356SOL    HW134099   9.019   2.596   7.174
 7356SOL    HW234100   8.869   2.533   7.179
 7357SOL     OW34101   2.350   3.530   7.118
 7357SOL    HW134102   2.257   3.520   7.155
 7357SOL    HW234103   2.414   3.485   7.179
 7358SOL     OW34104   1.948   5.802   7.137
 7358SOL    HW134105   2.016   5.812   7.210
 7358SOL    HW234106   1.857   5.809   7.176
 7359SOL     OW34107   4.299   1.442   7.142
 7359SOL    HW134108   4.288   1.405   7.235
 7359SOL    HW234109   4.386   1.489   7.136
 7360SOL     OW34110   0.506   3.398   7.155
 7360SOL    HW134111   0.460   3.333   7.216
 7360SOL    HW234112   0.543   3.473   7.208
 7361SOL     OW34113   6.260   1.671   3.757
 7361SOL    HW134114   6.219   1.579   3.766
 7361SOL    HW234115   6.229   1.712   3.672
 7362SOL     OW34116   8.588   1.438   0.030
 7362SOL    HW134117   8.624   1.518   0.078
 7362SOL    HW234118   8.610   1.446  -0.067
 7363SOL     OW34119   5.123   1.606   7.074
 7363SOL    HW134120   5.042   1.665   7.082
 7363SOL    HW234121   5.172   1.628   6.990
 7364SOL     OW34122   5.008   6.095   0.108
 7364SOL    HW134123   4.986   6.190   0.083
 7364SOL    HW234124   5.065   6.096   0.190
 7365SOL     OW34125   3.443   0.517   7.165
 7365SOL    HW134126   3.521   0.581   7.161
 7365SOL    HW234127   3.388   0.528   7.083
 7366SOL     OW34128   1.350   3.097   0.053
 7366SOL    HW134129   1.365   3.116   0.150
 7366SOL    HW234130   1.252   3.098   0.035
 7367SOL     OW34131   8.687   0.509   6.957
 7367SOL    HW134132   8.614   0.525   7.023
 7367SOL    HW234133   8.757   0.450   6.999
 7368SOL     OW34134   7.113   5.613   2.822
 7368SOL    HW134135   7.015   5.633   2.814
 7368SOL    HW234136   7.131   5.520   2.792
 7369SOL     OW34137   2.104   1.635   0.128
 7369SOL    HW134138   2.185   1.648   0.186
 7369SOL    HW234139   2.022   1.643   0.183
 7370SOL     OW34140   4.354   1.940   7.075
 7370SOL    HW134141   4.418   1.947   7.152
 7370SOL    HW234142   4.272   1.993   7.095
 7371SOL     OW34143   5.600   1.525   7.161
 7371SOL    HW134144   5.618   1.620   7.136
 7371SOL    HW234145   5.679   1.469   7.138
 7372SOL     OW34146   5.560   2.733   3.930
 7372SOL    HW134147   5.644   2.692   3.969
 7372SOL    HW234148   5.538   2.688   3.844
 7373SOL     OW34149   1.704   6.756   0.021
 7373SOL    HW134150   1.794   6.725  -0.010
 7373SOL    HW234151   1.648   6.677   0.042
 7374SOL     OW34152   0.703   7.826  -0.014
 7374SOL    HW134153   0.801   7.802  -0.012
 7374SOL    HW234154   0.652   7.760   0.040
 7375SOL     OW34155   1.984   5.101   0.207
 7375SOL    HW134156   1.982   5.024   0.142
 7375SOL    HW234157   1.927   5.175   0.172
 7376SOL     OW34158   3.092   8.005   7.105
 7376SOL    HW134159   3.172   8.006   7.045
 7376SOL    HW234160   3.012   7.976   7.053
 7377SOL     OW34161   3.329   1.701   0.128
 7377SOL    HW134162   3.410   1.702   0.068
 7377SOL    HW234163   3.328   1.785   0.182
 7378SOL     OW34164   5.041   0.501   7.176
 7378SOL    HW134165   5.080   0.585   7.136
 7378SOL    HW234166   4.942   0.502   7.162
 7379SOL     OW34167   3.031   5.649   0.174
 7379SOL    HW134168   3.072   5.660   0.083
 7379SOL    HW234169   2.933   5.667   0.169
 7380SOL     OW34170   6.891   3.711   3.790
 7380SOL    HW134171   6.843   3.714   3.879
 7380SOL    HW234172   6.854   3.780   3.730
 7381SOL     OW34173   0.335   5.273   0.137
 7381SOL    HW134174   0.379   5.220   0.064
 7381SOL    HW234175   0.258   5.324   0.099
 7382SOL     OW34176   1.357   4.860   2.325
 7382SOL    HW134177   1.299   4.874   2.405
 7382SOL    HW234178   1.346   4.936   2.261
 7383SOL     OW34179   3.064   4.148   7.036
 7383SOL    HW134180   3.150   4.096   7.030
 7383SOL    HW234181   3.027   4.141   7.128
 7384SOL     OW34182   2.229   0.557   7.264
 7384SOL    HW134183   2.281   0.622   7.208
 7384SOL    HW234184   2.132   0.563   7.241
 7385SOL     OW34185   0.703   3.873   2.940
 7385SOL    HW134186   0.785   3.857   2.996
 7385SOL    HW234187   0.658   3.956   2.971
 7386SOL     OW34188   9.230   7.975   7.213
 7386SOL    HW134189   9.133   7.988   7.236
 7386SOL    HW234190   9.249   7.878   7.204
 7387SOL     OW34191   8.442   4.252   7.123
 7387SOL    HW134192   8.376   4.325   7.103
 7387SOL    HW234193   8.417   4.207   7.208
 7388SOL     OW34194   0.279   2.055   0.022
 7388SOL    HW134195   0.318   1.965   0.040
 7388SOL    HW234196   0.180   2.049   0.024
 7389SOL     OW34197   0.358   3.708   2.569
 7389SOL    HW134198   0.267   3.665   2.578
 7389SOL    HW234199   0.418   3.648   2.518
 7390SOL     OW34200   6.259   1.453   0.056
 7390SOL    HW134201   6.315   1.413  -0.016
 7390SOL    HW234202   6.168   1.472   0.021
 7391SOL     OW34203   4.501   3.029   0.044
 7391SOL    HW134204   4.477   3.092  -0.030
 7391SOL    HW234205   4.492   2.935   0.011
 7392SOL     OW34206   7.487   6.737   7.086
 7392SOL    HW134207   7.574   6.753   7.134
 7392SOL    HW234208   7.413   6.776   7.141
 7393SOL     OW34209   1.599   2.073   0.196
 7393SOL    HW134210   1.557   2.136   0.131
 7393SOL    HW234211   1.678   2.029   0.154
 7394SOL     OW34212   5.112   1.022   0.045
 7394SOL    HW134213   5.137   0.946  -0.016
 7394SOL    HW234214   5.133   1.108   0.000
 7395SOL     OW34215   5.235   4.309   7.175
 7395SOL    HW134216   5.251   4.381   7.243
 7395SOL    HW234217   5.180   4.237   7.215
 7396SOL     OW34218   1.104   0.386   7.269
 7396SOL    HW134219   1.155   0.464   7.231
 7396SOL    HW234220   1.150   0.302   7.244
 7397SOL     OW34221  -0.009   4.518   7.193
 7397SOL    HW134222   0.083   4.557   7.180
 7397SOL    HW234223  -0.007   4.421   7.171
 7398SOL     OW34224   2.001   6.352  -0.016
 7398SOL    HW134225   2.009   6.253  -0.033
 7398SOL    HW234226   2.002   6.368   0.082
 7399SOL     OW34227   1.325   2.097   7.138
 7399SOL    HW134228   1.405   2.096   7.078
 7399SOL    HW234229   1.282   2.187   7.135
 7400SOL     OW34230   1.591   1.395   0.160
 7400SOL    HW134231   1.562   1.491   0.148
 7400SOL    HW234232   1.665   1.391   0.226
 7401SOL     OW34233   7.670   5.029   7.167
 7401SOL    HW134234   7.700   4.936   7.146
 7401SOL    HW234235   7.628   5.032   7.257
 7402SOL     OW34236   6.946   3.650   7.249
 7402SOL    HW134237   6.933   3.746   7.223
 7402SOL    HW234238   6.857   3.609   7.267
 7403SOL     OW34239   3.322   6.917   2.957
 7403SOL    HW134240   3.348   6.836   2.903
 7403SOL    HW234241   3.298   6.991   2.895
 7404SOL     OW34242   0.509   7.487   2.664
 7404SOL    HW134243   0.551   7.437   2.741
 7404SOL    HW234244   0.488   7.580   2.692
 7405SOL     OW34245   7.534   3.974   7.053
 7405SOL    HW134246   7.634   3.978   7.064
 7405SOL    HW234247   7.511   3.972   6.956
 7406SOL     OW34248   9.232   0.008   0.060
 7406SOL    HW134249   9.206  -0.019  -0.033
 7406SOL    HW234250   9.153   0.044   0.107
 7407SOL     OW34251   2.160   6.695   0.051
 7407SOL    HW134252   2.209   6.773   0.091
 7407SOL    HW234253   2.154   6.623   0.120
 7408SOL     OW34254   2.824   2.036   7.226
 7408SOL    HW134255   2.871   1.988   7.151
 7408SOL    HW234256   2.802   2.129   7.197
 7409SOL     OW34257   8.446   6.979   2.349
 7409SOL    HW134258   8.534   7.010   2.385
 7409SOL    HW234259   8.384   6.960   2.424
 7410SOL     OW34260   0.397   6.416   0.113
 7410SOL    HW134261   0.481   6.471   0.119
 7410SOL    HW234262   0.318   6.476   0.113
 7411SOL     OW34263   0.094   7.714   2.823
 7411SOL    HW134264   0.117   7.724   2.920
 7411SOL    HW234265   0.142   7.635   2.786
 7412SOL     OW34266   9.196   3.845   0.137
 7412SOL    HW134267   9.168   3.900   0.057
 7412SOL    HW234268   9.252   3.769   0.106
 7413SOL     OW34269   7.058   0.774   0.137
 7413SOL    HW134270   6.963   0.744   0.150
 7413SOL    HW234271   7.075   0.856   0.191
 7414SOL     OW34272   2.562   1.367   0.086
 7414SOL    HW134273   2.550   1.442   0.152
 7414SOL    HW234274   2.594   1.287   0.134
 7415SOL     OW34275   3.445   7.796   3.540
 7415SOL    HW134276   3.381   7.737   3.591
 7415SOL    HW234277   3.412   7.889   3.541
 7416SOL     OW34278   6.934   0.616   7.151
 7416SOL    HW134279   6.957   0.532   7.202
 7416SOL    HW234280   6.990   0.620   7.069
 7417SOL     OW34281   7.618   1.280   3.671
 7417SOL    HW134282   7.700   1.270   3.613
 7417SOL    HW234283   7.565   1.196   3.666
 7418SOL     OW34284   3.583   1.582   7.098
 7418SOL    HW134285   3.662   1.544   7.051
 7418SOL    HW234286   3.503   1.525   7.081
 7419SOL     OW34287   0.457   1.741   3.258
 7419SOL    HW134288   0.492   1.678   3.188
 7419SOL    HW234289   0.427   1.825   3.215
 7420SOL     OW34290   1.057   4.854   0.121
 7420SOL    HW134291   0.984   4.787   0.105
 7420SOL    HW234292   1.024   4.945   0.096
 7421SOL     OW34293   6.924   5.619   7.220
 7421SOL    HW134294   6.960   5.713   7.210
 7421SOL    HW234295   6.830   5.623   7.252
 7422SOL     OW34296   8.825   7.273   7.173
 7422SOL    HW134297   8.773   7.327   7.239
 7422SOL    HW234298   8.852   7.187   7.214
 7423SOL     OW34299   6.395   4.853   7.202
 7423SOL    HW134300   6.315   4.830   7.147
 7423SOL    HW234301   6.475   4.858   7.144
 7424SOL     OW34302   1.345   6.999   0.019
 7424SOL    HW134303   1.392   7.007   0.108
 7424SOL    HW234304   1.279   7.073   0.010
 7425SOL     OW34305   4.605   6.570   3.526
 7425SOL    HW134306   4.524   6.511   3.528
 7425SOL    HW234307   4.652   6.557   3.439
 7426SOL     OW34308   3.795   2.311   7.141
 7426SOL    HW134309   3.816   2.336   7.046
 7426SOL    HW234310   3.793   2.212   7.149
 7427SOL     OW34311   5.225   6.985   7.187
 7427SOL    HW134312   5.178   6.977   7.276
 7427SOL    HW234313   5.191   7.066   7.139
 7428SOL     OW34314   2.613   6.425   0.024
 7428SOL    HW134315   2.707   6.422  -0.013
 7428SOL    HW234316   2.610   6.488   0.100
 7429SOL     OW34317   0.989   6.607   7.237
 7429SOL    HW134318   1.007   6.686   7.177
 7429SOL    HW234319   1.057   6.536   7.220
 7430SOL     OW34320   3.210   1.054   0.033
 7430SOL    HW134321   3.211   1.114   0.113
 7430SOL    HW234322   3.126   1.001   0.033
 7431SOL     OW34323   6.892   5.300   3.222
 7431SOL    HW134324   6.941   5.229   3.171
 7431SOL    HW234325   6.951   5.379   3.235
 7432SOL     OW34326   6.930   8.369   4.501
 7432SOL    HW134327   6.899   8.369   4.405
 7432SOL    HW234328   6.892   8.289   4.548
 7433SOL     OW34329   7.569   5.843   0.162
 7433SOL    HW134330   7.563   5.830   0.063
 7433SOL    HW234331   7.556   5.939   0.183
 7434SOL     OW34332   2.520   3.031   0.157
 7434SOL    HW134333   2.506   2.963   0.084
 7434SOL    HW234334   2.457   3.107   0.144
 7435SOL     OW34335   7.386   0.343   7.125
 7435SOL    HW134336   7.330   0.259   7.129
 7435SOL    HW234337   7.379   0.392   7.211
 7436SOL     OW34338   1.291   3.920   7.186
 7436SOL    HW134339   1.354   3.957   7.255
 7436SOL    HW234340   1.200   3.913   7.226
 7437SOL     OW34341   6.916   0.214   7.190
 7437SOL    HW134342   6.980   0.287   7.165
 7437SOL    HW234343   6.965   0.144   7.242
 7438SOL     OW34344   4.932   4.381   3.548
 7438SOL    HW134345   4.897   4.444   3.618
 7438SOL    HW234346   4.869   4.305   3.537
 7439SOL     OW34347   7.402   2.189   4.233
 7439SOL    HW134348   7.432   2.202   4.138
 7439SOL    HW234349   7.305   2.165   4.234
 7440SOL     OW34350   5.026   4.562   0.013
 7440SOL    HW134351   5.096   4.530  -0.052
 7440SOL    HW234352   5.053   4.650   0.050
 7441SOL     OW34353   0.671   4.223   7.212
 7441SOL    HW134354   0.582   4.249   7.174
 7441SOL    HW234355   0.686   4.126   7.198
 7442SOL     OW34356   3.880   8.208   7.165
 7442SOL    HW134357   3.780   8.213   7.170
 7442SOL    HW234358   3.917   8.188   7.255
 7443SOL     OW34359   7.553   7.157   4.591
 7443SOL    HW134360   7.641   7.151   4.640
 7443SOL    HW234361   7.494   7.222   4.638
 7444SOL     OW34362   7.702   4.497   3.646
 7444SOL    HW134363   7.782   4.469   3.592
 7444SOL    HW234364   7.619   4.478   3.594
 7445SOL     OW34365   8.488   1.163   7.213
 7445SOL    HW134366   8.544   1.081   7.199
 7445SOL    HW234367   8.396   1.147   7.178
 7446SOL     OW34368   2.772   2.740   2.973
 7446SOL    HW134369   2.839   2.758   3.045
 7446SOL    HW234370   2.753   2.823   2.923
 7447SOL     OW34371   9.165   7.458   6.966
 7447SOL    HW134372   9.214   7.374   6.940
 7447SOL    HW234373   9.127   7.500   6.884
 7448SOL     OW34374   5.427   4.537   0.126
 7448SOL    HW134375   5.342   4.507   0.170
 7448SOL    HW234376   5.504   4.502   0.178
 7449SOL     OW34377   0.789   0.538  -0.016
 7449SOL    HW134378   0.781   0.635  -0.040
 7449SOL    HW234379   0.746   0.522   0.072
 7450SOL     OW34380   0.451   8.456   7.067
 7450SOL    HW134381   0.428   8.372   7.116
 7450SOL    HW234382   0.416   8.451   6.974
 7451SOL     OW34383   2.278   3.562   3.479
 7451SOL    HW134384   2.276   3.546   3.578
 7451SOL    HW234385   2.298   3.658   3.462
 7452SOL     OW34386   6.135   2.199   0.047
 7452SOL    HW134387   6.172   2.139  -0.025
 7452SOL    HW234388   6.196   2.199   0.125
 7453SOL     OW34389   1.555   2.817   2.349
 7453SOL    HW134390   1.619   2.881   2.394
 7453SOL    HW234391   1.493   2.780   2.416
 7454SOL     OW34392   6.587   6.277   0.166
 7454SOL    HW134393   6.522   6.353   0.168
 7454SOL    HW234394   6.574   6.220   0.247
 7455SOL     OW34395   9.075   3.293   3.987
 7455SOL    HW134396   9.116   3.318   3.899
 7455SOL    HW234397   9.146   3.264   4.050
 7456SOL     OW34398   5.238   8.300   7.084
 7456SOL    HW134399   5.220   8.201   7.088
 7456SOL    HW234400   5.154   8.347   7.058
 7457SOL     OW34401   9.023   5.959   3.441
 7457SOL    HW134402   8.957   6.017   3.490
 7457SOL    HW234403   9.054   5.886   3.502
 7458SOL     OW34404   1.862   3.917   0.048
 7458SOL    HW134405   1.803   3.889   0.124
 7458SOL    HW234406   1.955   3.930   0.080
 7459SOL     OW34407   0.025   7.599   3.117
 7459SOL    HW134408   0.121   7.567   3.119
 7459SOL    HW234409  -0.035   7.521   3.131
 7460SOL     OW34410   9.170   7.168   7.192
 7460SOL    HW134411   9.200   7.206   7.280
 7460SOL    HW234412   9.247   7.165   7.130
 7461SOL     OW34413   5.127   3.883   7.207
 7461SOL    HW134414   5.180   3.860   7.290
 7461SOL    HW234415   5.059   3.951   7.230
 7462SOL     OW34416   6.624   7.402   7.218
 7462SOL    HW134417   6.656   7.383   7.311
 7462SOL    HW234418   6.610   7.317   7.170
 7463SOL     OW34419   0.273   3.071   0.192
 7463SOL    HW134420   0.183   3.039   0.223
 7463SOL    HW234421   0.261   3.147   0.128
 7464SOL     OW34422   7.566   5.388   2.435
 7464SOL    HW134423   7.645   5.448   2.450
 7464SOL    HW234424   7.586   5.298   2.472
 7465SOL     OW34425   7.920   5.459   0.133
 7465SOL    HW134426   7.954   5.385   0.192
 7465SOL    HW234427   7.940   5.547   0.175
 7466SOL     OW34428   6.932   7.601   3.403
 7466SOL    HW134429   6.876   7.579   3.323
 7466SOL    HW234430   6.880   7.657   3.466
 7467SOL     OW34431   5.290   3.685   5.249
 7467SOL    HW134432   5.254   3.773   5.214
 7467SOL    HW234433   5.289   3.618   5.175
 7468SOL     OW34434   8.866   2.380   2.142
 7468SOL    HW134435   8.890   2.311   2.211
 7468SOL    HW234436   8.877   2.471   2.180
 7469SOL     OW34437   4.457   6.709   7.159
 7469SOL    HW134438   4.509   6.651   7.223
 7469SOL    HW234439   4.442   6.798   7.201
 7470SOL     OW34440   9.302   5.214   4.093
 7470SOL    HW134441   9.396   5.237   4.065
 7470SOL    HW234442   9.239   5.240   4.020
 7471SOL     OW34443   8.859   3.143   3.768
 7471SOL    HW134444   8.833   3.208   3.697
 7471SOL    HW234445   8.799   3.153   3.846
 7472SOL     OW34446   2.909   5.879   3.227
 7472SOL    HW134447   2.997   5.890   3.180
 7472SOL    HW234448   2.842   5.939   3.185
 7473SOL     OW34449   6.304   3.088   0.086
 7473SOL    HW134450   6.266   3.117   0.174
 7473SOL    HW234451   6.377   3.149   0.060
 7474SOL     OW34452   0.488   3.638   2.818
 7474SOL    HW134453   0.525   3.565   2.877
 7474SOL    HW234454   0.538   3.722   2.835
 7475SOL     OW34455   0.260   0.585   7.212
 7475SOL    HW134456   0.360   0.577   7.208
 7475SOL    HW234457   0.219   0.494   7.213
 7476SOL     OW34458   5.473   2.323   0.052
 7476SOL    HW134459   5.468   2.409   0.002
 7476SOL    HW234460   5.541   2.264   0.010
 7477SOL     OW34461   5.149   0.524   3.523
 7477SOL    HW134462   5.076   0.495   3.585
 7477SOL    HW234463   5.112   0.532   3.431
 7478SOL     OW34464   3.437   3.730   7.247
 7478SOL    HW134465   3.424   3.745   7.149
 7478SOL    HW234466   3.370   3.784   7.298
 7479SOL     OW34467   3.549   4.224   0.194
 7479SOL    HW134468   3.544   4.309   0.140
 7479SOL    HW234469   3.457   4.190   0.210
 7480SOL     OW34470   2.651   4.663   3.085
 7480SOL    HW134471   2.696   4.664   2.995
 7480SOL    HW234472   2.565   4.711   3.079
 7481SOL     OW34473   9.451   0.785   0.093
 7481SOL    HW134474   9.447   0.716   0.020
 7481SOL    HW234475   9.417   0.871   0.058
 7482SOL     OW34476   8.024   1.160   3.595
 7482SOL    HW134477   7.984   1.115   3.675
 7482SOL    HW234478   8.036   1.094   3.522
 7483SOL     OW34479   3.484   2.316   7.222
 7483SOL    HW134480   3.497   2.411   7.191
 7483SOL    HW234481   3.547   2.297   7.296
 7484SOL     OW34482   4.478   8.051  -0.034
 7484SOL    HW134483   4.391   8.090  -0.003
 7484SOL    HW234484   4.525   8.010   0.044
 7485SOL     OW34485   8.827   1.155   3.442
 7485SOL    HW134486   8.828   1.208   3.528
 7485SOL    HW234487   8.855   1.214   3.367
 7486SOL     OW34488   1.767   6.049   7.268
 7486SOL    HW134489   1.835   6.064   7.195
 7486SOL    HW234490   1.700   5.983   7.237
 7487SOL     OW34491   8.176   7.143   7.114
 7487SOL    HW134492   8.109   7.188   7.174
 7487SOL    HW234493   8.209   7.060   7.158
 7488SOL     OW34494   8.878   2.882   7.100
 7488SOL    HW134495   8.899   2.941   7.178
 7488SOL    HW234496   8.832   2.935   7.030
 7489SOL     OW34497   6.437   0.282   0.149
 7489SOL    HW134498   6.455   0.183   0.152
 7489SOL    HW234499   6.464   0.317   0.060
 7490SOL     OW34500   3.456   6.197   0.055
 7490SOL    HW134501   3.420   6.147  -0.024
 7490SOL    HW234502   3.508   6.134   0.112
 7491SOL     OW34503   1.855   7.372   0.018
 7491SOL    HW134504   1.937   7.378   0.077
 7491SOL    HW234505   1.789   7.440   0.046
 7492SOL     OW34506   8.820   3.184   4.957
 7492SOL    HW134507   8.804   3.283   4.960
 7492SOL    HW234508   8.770   3.140   5.031
 7493SOL     OW34509   4.646   1.691   4.537
 7493SOL    HW134510   4.547   1.679   4.530
 7493SOL    HW234511   4.692   1.619   4.486
 7494SOL     OW34512   7.185   4.491   0.127
 7494SOL    HW134513   7.224   4.565   0.183
 7494SOL    HW234514   7.133   4.429   0.185
 7495SOL     OW34515   6.863   7.943   0.078
 7495SOL    HW134516   6.892   7.876   0.008
 7495SOL    HW234517   6.789   7.998   0.042
 7496SOL     OW34518   9.420   0.600   3.490
 7496SOL    HW134519   9.473   0.638   3.413
 7496SOL    HW234520   9.481   0.548   3.549
 7497SOL     OW34521   0.890   1.612   3.335
 7497SOL    HW134522   0.911   1.705   3.305
 7497SOL    HW234523   0.943   1.591   3.417
 7498SOL     OW34524   3.552   5.295   7.084
 7498SOL    HW134525   3.570   5.200   7.112
 7498SOL    HW234526   3.499   5.295   7.000
 7499SOL     OW34527   4.102   2.359   0.151
 7499SOL    HW134528   4.017   2.392   0.110
 7499SOL    HW234529   4.175   2.364   0.083
 7500SOL     OW34530   5.636   4.206   7.148
 7500SOL    HW134531   5.693   4.267   7.203
 7500SOL    HW234532   5.694   4.143   7.098
 7501SOL     OW34533   3.384   1.940   3.550
 7501SOL    HW134534   3.370   1.999   3.631
 7501SOL    HW234535   3.306   1.881   3.539
 7502SOL     OW34536   0.333   6.695   3.392
 7502SOL    HW134537   0.294   6.625   3.332
 7502SOL    HW234538   0.260   6.750   3.431
 7503SOL     OW34539   4.418   0.397   7.132
 7503SOL    HW134540   4.395   0.303   7.106
 7503SOL    HW234541   4.381   0.460   7.064
 7504SOL     OW34542   6.894   8.343  -0.001
 7504SOL    HW134543   6.870   8.427   0.048
 7504SOL    HW234544   6.825   8.274   0.017
 7505SOL     OW34545   4.225   7.506   0.013
 7505SOL    HW134546   4.177   7.423   0.043
 7505SOL    HW234547   4.164   7.584   0.023
 7506SOL     OW34548   2.803   3.391   0.097
 7506SOL    HW134549   2.749   3.409   0.180
 7506SOL    HW234550   2.886   3.445   0.100
 7507SOL     OW34551   4.522   5.410   4.365
 7507SOL    HW134552   4.583   5.489   4.356
 7507SOL    HW234553   4.550   5.339   4.301
 7508SOL     OW34554   1.673   7.924   7.067
 7508SOL    HW134555   1.619   7.905   7.149
 7508SOL    HW234556   1.770   7.914   7.088
 7509SOL     OW34557   1.773   6.222   3.697
 7509SOL    HW134558   1.716   6.149   3.658
 7509SOL    HW234559   1.845   6.181   3.753
 7510SOL     OW34560   9.124   0.573   4.031
 7510SOL    HW134561   9.114   0.625   4.116
 7510SOL    HW234562   9.131   0.476   4.053
 7511SOL     OW34563   0.699   7.123   7.118
 7511SOL    HW134564   0.676   7.026   7.116
 7511SOL    HW234565   0.617   7.177   7.102
 7512SOL     OW34566   2.936   2.247   3.359
 7512SOL    HW134567   2.927   2.306   3.279
 7512SOL    HW234568   2.984   2.164   3.334
 7513SOL     OW34569   0.346   6.245   4.055
 7513SOL    HW134570   0.248   6.265   4.044
 7513SOL    HW234571   0.359   6.147   4.067
 7514SOL     OW34572   3.421   3.703   3.604
 7514SOL    HW134573   3.379   3.656   3.526
 7514SOL    HW234574   3.487   3.770   3.571
 7515SOL     OW34575   7.929   3.185   7.194
 7515SOL    HW134576   7.885   3.272   7.221
 7515SOL    HW234577   8.027   3.192   7.209
 7516SOL     OW34578   1.219   3.176   3.954
 7516SOL    HW134579   1.186   3.089   3.992
 7516SOL    HW234580   1.250   3.234   4.028
 7517SOL     OW34581   4.674   3.590   0.048
 7517SOL    HW134582   4.625   3.551  -0.031
 7517SOL    HW234583   4.723   3.671   0.019
 7518SOL     OW34584   7.826   1.374   7.036
 7518SOL    HW134585   7.749   1.363   7.099
 7518SOL    HW234586   7.908   1.338   7.077
 7519SOL     OW34587   4.858   2.400   0.057
 7519SOL    HW134588   4.867   2.311   0.012
 7519SOL    HW234589   4.867   2.472  -0.011
 7520SOL     OW34590   3.472   3.386   0.078
 7520SOL    HW134591   3.448   3.332  -0.003
 7520SOL    HW234592   3.506   3.475   0.049
 7521SOL     OW34593   7.176   7.527   0.029
 7521SOL    HW134594   7.186   7.569   0.120
 7521SOL    HW234595   7.230   7.444   0.026
 7522SOL     OW34596   7.949   4.683   0.094
 7522SOL    HW134597   7.971   4.613   0.025
 7522SOL    HW234598   7.919   4.766   0.048
 7523SOL     OW34599   1.676   6.396   7.110
 7523SOL    HW134600   1.603   6.345   7.063
 7523SOL    HW234601   1.642   6.431   7.196
 7524SOL     OW34602   2.974   1.038   4.788
 7524SOL    HW134603   2.971   0.974   4.864
 7524SOL    HW234604   2.974   0.988   4.702
 7525SOL     OW34605   3.069   4.854   0.068
 7525SOL    HW134606   3.007   4.792   0.117
 7525SOL    HW234607   3.070   4.828  -0.029
 7526SOL     OW34608   4.633   2.549   4.600
 7526SOL    HW134609   4.668   2.635   4.561
 7526SOL    HW234610   4.653   2.474   4.538
 7527SOL     OW34611   1.754   4.394   6.586
 7527SOL    HW134612   1.775   4.459   6.659
 7527SOL    HW234613   1.655   4.388   6.574
 7528SOL     OW34614   7.779   1.665   7.162
 7528SOL    HW134615   7.723   1.626   7.089
 7528SOL    HW234616   7.770   1.764   7.161
 7529SOL     OW34617   1.571   5.533   3.072
 7529SOL    HW134618   1.633   5.454   3.063
 7529SOL    HW234619   1.608   5.596   3.140
 7530SOL     OW34620   0.673   3.099  -0.009
 7530SOL    HW134621   0.689   3.027   0.060
 7530SOL    HW234622   0.633   3.178   0.034
 7531SOL     OW34623   5.665   7.144   3.534
 7531SOL    HW134624   5.589   7.094   3.491
 7531SOL    HW234625   5.714   7.195   3.464
 7532SOL     OW34626   9.389   0.423   3.085
 7532SOL    HW134627   9.327   0.398   3.010
 7532SOL    HW234628   9.469   0.468   3.049
 7533SOL     OW34629   3.831   0.305   0.089
 7533SOL    HW134630   3.900   0.346   0.028
 7533SOL    HW234631   3.765   0.254   0.034
 7534SOL     OW34632   3.191   0.801   4.437
 7534SOL    HW134633   3.275   0.748   4.455
 7534SOL    HW234634   3.112   0.743   4.451
 7535SOL     OW34635   8.520   3.903   0.089
 7535SOL    HW134636   8.477   3.896  -0.002
 7535SOL    HW234637   8.614   3.871   0.083
 7536SOL     OW34638   2.468   0.862   0.122
 7536SOL    HW134639   2.456   0.946   0.068
 7536SOL    HW234640   2.450   0.881   0.218
 7537SOL     OW34641   0.304   7.635   4.114
 7537SOL    HW134642   0.391   7.642   4.062
 7537SOL    HW234643   0.309   7.557   4.176
 7538SOL     OW34644   0.773   6.725   7.046
 7538SOL    HW134645   0.697   6.789   7.061
 7538SOL    HW234646   0.761   6.646   7.105
 7539SOL     OW34647   7.496   2.918   7.070
 7539SOL    HW134648   7.572   2.857   7.093
 7539SOL    HW234649   7.479   2.981   7.145
 7540SOL     OW34650   2.699   0.369   3.062
 7540SOL    HW134651   2.722   0.431   2.986
 7540SOL    HW234652   2.683   0.422   3.144
 7541SOL     OW34653   3.175   2.330   3.112
 7541SOL    HW134654   3.173   2.259   3.183
 7541SOL    HW234655   3.209   2.415   3.152
 7542SOL     OW34656   0.938   1.660   2.463
 7542SOL    HW134657   0.976   1.720   2.392
 7542SOL    HW234658   0.935   1.567   2.429
 7543SOL     OW34659   3.127   7.637   0.030
 7543SOL    HW134660   3.064   7.701  -0.014
 7543SOL    HW234661   3.118   7.547  -0.012
 7544SOL     OW34662   8.480   4.237   2.036
 7544SOL    HW134663   8.413   4.183   2.088
 7544SOL    HW234664   8.549   4.177   1.999
 7545SOL     OW34665   7.231   5.333   3.843
 7545SOL    HW134666   7.172   5.253   3.861
 7545SOL    HW234667   7.247   5.340   3.745
 7546SOL     OW34668   5.973   1.818   0.195
 7546SOL    HW134669   6.060   1.868   0.194
 7546SOL    HW234670   5.905   1.873   0.243
 7547SOL     OW34671   2.164   3.743   2.240
 7547SOL    HW134672   2.089   3.753   2.174
 7547SOL    HW234673   2.222   3.667   2.212
 7548SOL     OW34674   5.834   1.995   6.984
 7548SOL    HW134675   5.777   1.927   7.030
 7548SOL    HW234676   5.919   2.006   7.034
 7549SOL     OW34677   7.166   3.783   3.661
 7549SOL    HW134678   7.240   3.729   3.702
 7549SOL    HW234679   7.148   3.863   3.717
 7550SOL     OW34680   2.918   5.424   7.248
 7550SOL    HW134681   2.942   5.469   7.162
 7550SOL    HW234682   2.889   5.331   7.231
 7551SOL     OW34683   5.416   5.100   4.241
 7551SOL    HW134684   5.385   5.182   4.191
 7551SOL    HW234685   5.342   5.033   4.243
 7552SOL     OW34686   1.511   2.511   3.677
 7552SOL    HW134687   1.495   2.515   3.578
 7552SOL    HW234688   1.424   2.499   3.724
 7553SOL     OW34689   5.420   4.808   7.237
 7553SOL    HW134690   5.509   4.855   7.239
 7553SOL    HW234691   5.429   4.725   7.183
 7554SOL     OW34692   7.088   1.137   0.069
 7554SOL    HW134693   7.020   1.191   0.017
 7554SOL    HW234694   7.055   1.044   0.078
 7555SOL     OW34695   5.269   7.361   4.185
 7555SOL    HW134696   5.351   7.414   4.207
 7555SOL    HW234697   5.270   7.276   4.237
 7556SOL     OW34698   5.865   2.530   7.202
 7556SOL    HW134699   5.820   2.580   7.277
 7556SOL    HW234700   5.865   2.433   7.222
 7557SOL     OW34701   2.616   4.303   1.157
 7557SOL    HW134702   2.634   4.206   1.138
 7557SOL    HW234703   2.642   4.357   1.078
 7558SOL     OW34704   6.818   2.062   0.094
 7558SOL    HW134705   6.779   2.086   0.183
 7558SOL    HW234706   6.750   2.078   0.023
 7559SOL     OW34707   1.605   2.405   0.167
 7559SOL    HW134708   1.695   2.367   0.144
 7559SOL    HW234709   1.555   2.424   0.083
 7560SOL     OW34710   4.136   2.572   3.901
 7560SOL    HW134711   4.198   2.537   3.972
 7560SOL    HW234712   4.069   2.632   3.944
 7561SOL     OW34713   2.922   3.588   7.038
 7561SOL    HW134714   2.895   3.496   7.068
 7561SOL    HW234715   3.021   3.597   7.041
 7562SOL     OW34716   8.807   4.502   3.881
 7562SOL    HW134717   8.864   4.478   3.802
 7562SOL    HW234718   8.746   4.577   3.856
 7563SOL     OW34719   7.120   7.565   3.750
 7563SOL    HW134720   7.092   7.631   3.679
 7563SOL    HW234721   7.182   7.498   3.709
 7564SOL     OW34722   2.422   3.993   3.569
 7564SOL    HW134723   2.335   4.012   3.522
 7564SOL    HW234724   2.435   3.894   3.576
 7565SOL     OW34725   2.123   2.307   7.185
 7565SOL    HW134726   2.091   2.237   7.119
 7565SOL    HW234727   2.064   2.386   7.179
 7566SOL     OW34728   0.524   7.758   3.800
 7566SOL    HW134729   0.477   7.707   3.874
 7566SOL    HW234730   0.457   7.782   3.730
 7567SOL     OW34731   6.541   5.709   0.004
 7567SOL    HW134732   6.593   5.793  -0.015
 7567SOL    HW234733   6.498   5.717   0.094
 7568SOL     OW34734   7.512   8.101   7.281
 7568SOL    HW134735   7.445   8.091   7.207
 7568SOL    HW234736   7.604   8.101   7.243
 7569SOL     OW34737   8.985   2.487   0.272
 7569SOL    HW134738   8.904   2.496   0.331
 7569SOL    HW234739   9.021   2.395   0.280
 7570SOL     OW34740   9.283   1.531   0.015
 7570SOL    HW134741   9.255   1.627   0.012
 7570SOL    HW234742   9.307   1.507   0.109
 7571SOL     OW34743   4.668   0.959   3.802
 7571SOL    HW134744   4.743   0.993   3.744
 7571SOL    HW234745   4.661   0.861   3.793
 7572SOL     OW34746   8.253   8.290   3.275
 7572SOL    HW134747   8.206   8.351   3.210
 7572SOL    HW234748   8.347   8.276   3.246
 7573SOL     OW34749   4.852   5.777   0.083
 7573SOL    HW134750   4.813   5.839   0.014
 7573SOL    HW234751   4.930   5.729   0.044
 7574SOL     OW34752   7.241   8.396   3.178
 7574SOL    HW134753   7.177   8.330   3.219
 7574SOL    HW234754   7.316   8.414   3.240
 7575SOL     OW34755   3.207   1.523   3.429
 7575SOL    HW134756   3.208   1.484   3.336
 7575SOL    HW234757   3.142   1.598   3.432
 7576SOL     OW34758   1.249   7.683   3.172
 7576SOL    HW134759   1.281   7.723   3.085
 7576SOL    HW234760   1.173   7.737   3.208
 7577SOL     OW34761   8.600   4.489   7.190
 7577SOL    HW134762   8.576   4.507   7.285
 7577SOL    HW234763   8.669   4.417   7.186
 7578SOL     OW34764   0.853   5.453   7.159
 7578SOL    HW134765   0.774   5.486   7.106
 7578SOL    HW234766   0.856   5.501   7.245
 7579SOL     OW34767   7.147   6.962   7.126
 7579SOL    HW134768   7.089   6.999   7.200
 7579SOL    HW234769   7.175   6.870   7.149
 7580SOL     OW34770   7.292   1.056   7.102
 7580SOL    HW134771   7.378   1.024   7.143
 7580SOL    HW234772   7.221   0.988   7.115
 7581SOL     OW34773   0.720   3.392   3.216
 7581SOL    HW134774   0.813   3.406   3.182
 7581SOL    HW234775   0.657   3.387   3.139
 7582SOL     OW34776   4.504   2.347   5.048
 7582SOL    HW134777   4.512   2.350   4.947
 7582SOL    HW234778   4.514   2.253   5.078
 7583SOL     OW34779   6.335   7.108   4.368
 7583SOL    HW134780   6.359   7.187   4.426
 7583SOL    HW234781   6.392   7.030   4.394
 7584SOL     OW34782   4.399   4.300   7.196
 7584SOL    HW134783   4.335   4.314   7.120
 7584SOL    HW234784   4.398   4.204   7.223
 7585SOL     OW34785   7.353   1.348   3.570
 7585SOL    HW134786   7.398   1.322   3.484
 7585SOL    HW234787   7.291   1.275   3.598
 7586SOL     OW34788   0.603   6.317   2.965
 7586SOL    HW134789   0.562   6.285   2.880
 7586SOL    HW234790   0.690   6.271   2.979
 7587SOL     OW34791   4.423   7.185   7.268
 7587SOL    HW134792   4.358   7.239   7.214
 7587SOL    HW234793   4.512   7.187   7.224
 7588SOL     OW34794   5.079   6.570   0.088
 7588SOL    HW134795   5.105   6.512   0.166
 7588SOL    HW234796   5.013   6.638   0.118
 7589SOL     OW34797   6.400   3.605   3.185
 7589SOL    HW134798   6.419   3.528   3.123
 7589SOL    HW234799   6.387   3.570   3.277
 7590SOL     OW34800   2.118   4.842   0.031
 7590SOL    HW134801   2.178   4.891   0.095
 7590SOL    HW234802   2.041   4.804   0.081
 7591SOL     OW34803   8.667   2.569   4.008
 7591SOL    HW134804   8.638   2.582   4.103
 7591SOL    HW234805   8.688   2.473   3.993
 7592SOL     OW34806   1.009   4.489   2.180
 7592SOL    HW134807   0.987   4.575   2.227
 7592SOL    HW234808   0.940   4.469   2.112
 7593SOL     OW34809   6.146   5.177   3.729
 7593SOL    HW134810   6.142   5.218   3.637
 7593SOL    HW234811   6.179   5.084   3.722
 7594SOL     OW34812   6.041   3.299  -0.035
 7594SOL    HW134813   6.097   3.359   0.023
 7594SOL    HW234814   5.998   3.229   0.022
 7595SOL     OW34815   6.617   3.388   7.056
 7595SOL    HW134816   6.562   3.354   6.979
 7595SOL    HW234817   6.667   3.469   7.027
 7596SOL     OW34818   2.836   5.192   3.809
 7596SOL    HW134819   2.761   5.127   3.828
 7596SOL    HW234820   2.920   5.140   3.792
 7597SOL     OW34821   6.681   3.425   3.882
 7597SOL    HW134822   6.664   3.393   3.789
 7597SOL    HW234823   6.687   3.525   3.882
 7598SOL     OW34824   7.307   6.289   3.584
 7598SOL    HW134825   7.219   6.273   3.538
 7598SOL    HW234826   7.356   6.362   3.536
 7599SOL     OW34827  -0.001   4.103   7.259
 7599SOL    HW134828   0.065   4.120   7.185
 7599SOL    HW234829  -0.043   4.014   7.245
 7600SOL     OW34830   0.959   6.449   3.677
 7600SOL    HW134831   0.950   6.355   3.644
 7600SOL    HW234832   0.934   6.512   3.604
 7601SOL     OW34833   4.150   3.900   7.195
 7601SOL    HW134834   4.160   3.876   7.292
 7601SOL    HW234835   4.064   3.864   7.161
 7602SOL     OW34836   6.549   2.292   4.222
 7602SOL    HW134837   6.522   2.200   4.192
 7602SOL    HW234838   6.494   2.360   4.175
 7603SOL     OW34839   6.758   5.463   2.949
 7603SOL    HW134840   6.799   5.404   3.019
 7603SOL    HW234841   6.692   5.524   2.991
 7604SOL     OW34842   7.898   4.074   0.103
 7604SOL    HW134843   7.919   4.024   0.018
 7604SOL    HW234844   7.882   4.170   0.081
 7605SOL     OW34845   3.831   4.191   0.034
 7605SOL    HW134846   3.867   4.128   0.103
 7605SOL    HW234847   3.832   4.284   0.069
 7606SOL     OW34848   7.062   6.500   3.090
 7606SOL    HW134849   7.136   6.568   3.102
 7606SOL    HW234850   7.008   6.496   3.173
 7607SOL     OW34851   6.900   4.553   0.028
 7607SOL    HW134852   6.911   4.493  -0.052
 7607SOL    HW234853   6.806   4.551   0.058
 7608SOL     OW34854   4.286   6.841   3.486
 7608SOL    HW134855   4.319   6.797   3.402
 7608SOL    HW234856   4.323   6.933   3.493
 7609SOL     OW34857   5.069   6.137   3.475
 7609SOL    HW134858   5.046   6.207   3.406
 7609SOL    HW234859   5.008   6.060   3.464
 7610SOL     OW34860   3.486   0.147   0.063
 7610SOL    HW134861   3.487   0.247   0.067
 7610SOL    HW234862   3.573   0.112   0.095
 7611SOL     OW34863   2.974   1.750   7.262
 7611SOL    HW134864   3.020   1.661   7.261
 7611SOL    HW234865   2.992   1.798   7.177
 7612SOL     OW34866   1.852   4.744   4.464
 7612SOL    HW134867   1.877   4.667   4.405
 7612SOL    HW234868   1.788   4.804   4.416
 7613SOL     OW34869   5.414   3.933   7.193
 7613SOL    HW134870   5.412   4.004   7.264
 7613SOL    HW234871   5.508   3.921   7.162
 7614SOL     OW34872   6.222   2.863   7.116
 7614SOL    HW134873   6.144   2.801   7.101
 7614SOL    HW234874   6.307   2.815   7.096
 7615SOL     OW34875   7.878   1.448   3.476
 7615SOL    HW134876   7.817   1.420   3.401
 7615SOL    HW234877   7.920   1.535   3.453
 7616SOL     OW34878   0.756   4.595   0.121
 7616SOL    HW134879   0.732   4.599   0.219
 7616SOL    HW234880   0.843   4.548   0.111
 7617SOL     OW34881   8.463   6.333   3.985
 7617SOL    HW134882   8.511   6.247   3.967
 7617SOL    HW234883   8.402   6.321   4.063
 7618SOL     OW34884   2.095   2.769   7.260
 7618SOL    HW134885   1.995   2.759   7.247
 7618SOL    HW234886   2.129   2.838   7.198
 7619SOL     OW34887   9.274   8.155   3.359
 7619SOL    HW134888   9.309   8.229   3.302
 7619SOL    HW234889   9.223   8.091   3.303
 7620SOL     OW34890   8.218   3.044   0.169
 7620SOL    HW134891   8.319   3.043   0.163
 7620SOL    HW234892   8.183   3.122   0.119
 7621SOL     OW34893   6.294   0.592   7.152
 7621SOL    HW134894   6.265   0.656   7.225
 7621SOL    HW234895   6.292   0.499   7.187
 7622SOL     OW34896   0.227   2.357   0.028
 7622SOL    HW134897   0.148   2.304  -0.005
 7622SOL    HW234898   0.226   2.447  -0.014
 7623SOL     OW34899   4.903   7.212   0.078
 7623SOL    HW134900   4.857   7.226   0.167
 7623SOL    HW234901   4.884   7.290   0.019
 7624SOL     OW34902   1.938   3.569   3.980
 7624SOL    HW134903   1.856   3.603   4.028
 7624SOL    HW234904   1.963   3.635   3.909
 7625SOL     OW34905   8.523   7.479   3.256
 7625SOL    HW134906   8.591   7.408   3.276
 7625SOL    HW234907   8.537   7.556   3.318
 7626SOL     OW34908   4.460   4.617   3.678
 7626SOL    HW134909   4.543   4.616   3.736
 7626SOL    HW234910   4.484   4.586   3.586
 7627SOL     OW34911   7.874   5.753   7.011
 7627SOL    HW134912   7.829   5.841   7.031
 7627SOL    HW234913   7.829   5.681   7.063
 7628SOL     OW34914   3.520   8.078   7.233
 7628SOL    HW134915   3.469   8.133   7.167
 7628SOL    HW234916   3.614   8.070   7.203
 7629SOL     OW34917   5.506   1.284   0.160
 7629SOL    HW134918   5.454   1.199   0.147
 7629SOL    HW234919   5.482   1.348   0.088
 7630SOL     OW34920   3.539   4.566   7.134
 7630SOL    HW134921   3.595   4.519   7.203
 7630SOL    HW234922   3.498   4.499   7.074
 7631SOL     OW34923   3.251   6.364   3.910
 7631SOL    HW134924   3.235   6.461   3.886
 7631SOL    HW234925   3.345   6.353   3.939
 7632SOL     OW34926   9.410   1.090   3.864
 7632SOL    HW134927   9.394   1.114   3.960
 7632SOL    HW234928   9.322   1.082   3.818
 7633SOL     OW34929   9.467   5.396   0.057
 7633SOL    HW134930   9.371   5.365   0.052
 7633SOL    HW234931   9.485   5.457  -0.019
 7634SOL     OW34932   1.030   4.292   3.457
 7634SOL    HW134933   0.971   4.250   3.387
 7634SOL    HW234934   1.125   4.268   3.438
 7635SOL     OW34935   3.908   6.030   7.266
 7635SOL    HW134936   3.983   6.034   7.200
 7635SOL    HW234937   3.821   6.027   7.217
 7636SOL     OW34938   2.152   1.553   4.882
 7636SOL    HW134939   2.243   1.590   4.864
 7636SOL    HW234940   2.099   1.552   4.798
 7637SOL     OW34941   1.008   3.361   7.115
 7637SOL    HW134942   1.106   3.354   7.094
 7637SOL    HW234943   0.969   3.271   7.124
 7638SOL     OW34944   6.494   2.340   7.156
 7638SOL    HW134945   6.590   2.370   7.148
 7638SOL    HW234946   6.435   2.410   7.117
 7639SOL     OW34947   8.164   7.879   2.994
 7639SOL    HW134948   8.099   7.868   3.070
 7639SOL    HW234949   8.189   7.789   2.959
 7640SOL     OW34950   7.216   2.052   4.012
 7640SOL    HW134951   7.205   2.026   3.916
 7640SOL    HW234952   7.250   2.145   4.017
 7641SOL     OW34953   5.784   5.439   0.108
 7641SOL    HW134954   5.780   5.389   0.195
 7641SOL    HW234955   5.702   5.494   0.097
 7642SOL     OW34956   5.473   5.584   7.196
 7642SOL    HW134957   5.429   5.665   7.237
 7642SOL    HW234958   5.407   5.536   7.139
 7643SOL     OW34959   1.082   7.871   3.005
 7643SOL    HW134960   0.989   7.907   3.023
 7643SOL    HW234961   1.081   7.818   2.921
 7644SOL     OW34962   7.073   4.969   3.113
 7644SOL    HW134963   7.121   4.930   3.192
 7644SOL    HW234964   6.985   5.005   3.142
 7645SOL     OW34965   0.840   3.614   0.101
 7645SOL    HW134966   0.779   3.679   0.055
 7645SOL    HW234967   0.920   3.662   0.134
 7646SOL     OW34968   5.313   6.752   2.991
 7646SOL    HW134969   5.279   6.684   3.057
 7646SOL    HW234970   5.367   6.820   3.039
 7647SOL     OW34971   8.618   1.941   7.000
 7647SOL    HW134972   8.707   1.966   7.039
 7647SOL    HW234973   8.626   1.855   6.951
 7648SOL     OW34974   4.851   0.152   3.091
 7648SOL    HW134975   4.914   0.078   3.115
 7648SOL    HW234976   4.766   0.140   3.141
 7649SOL     OW34977   2.846   6.134   0.048
 7649SOL    HW134978   2.823   6.132  -0.050
 7649SOL    HW234979   2.786   6.071   0.097
 7650SOL     OW34980   7.779   6.528   7.195
 7650SOL    HW134981   7.879   6.531   7.210
 7650SOL    HW234982   7.739   6.615   7.219
 7651SOL     OW34983   3.662   3.137   3.479
 7651SOL    HW134984   3.693   3.165   3.387
 7651SOL    HW234985   3.606   3.055   3.471
 7652SOL     OW34986   8.926   4.368   3.406
 7652SOL    HW134987   8.899   4.356   3.502
 7652SOL    HW234988   9.022   4.343   3.395
 7653SOL     OW34989   7.136   2.516   0.187
 7653SOL    HW134990   7.099   2.539   0.278
 7653SOL    HW234991   7.175   2.425   0.189
 7654SOL     OW34992   5.425   6.603   7.145
 7654SOL    HW134993   5.343   6.648   7.108
 7654SOL    HW234994   5.426   6.613   7.244
 7655SOL     OW34995   6.652   3.239   4.877
 7655SOL    HW134996   6.589   3.286   4.940
 7655SOL    HW234997   6.675   3.150   4.915
 7656SOL     OW34998   3.159   7.188   2.536
 7656SOL    HW134999   3.248   7.189   2.489
 7656SOL    HW235000   3.090   7.229   2.478
 7657SOL     OW35001   9.283   2.474   0.047
 7657SOL    HW135002   9.218   2.453   0.120
 7657SOL    HW235003   9.368   2.506   0.088
 7658SOL     OW35004   2.143   6.051   0.134
 7658SOL    HW135005   2.065   6.000   0.096
 7658SOL    HW235006   2.187   6.103   0.061
 7659SOL     OW35007   9.455   4.865   0.213
 7659SOL    HW135008   9.518   4.795   0.178
 7659SOL    HW235009   9.387   4.886   0.144
 7660SOL     OW35010   3.974   2.020   7.119
 7660SOL    HW135011   3.914   2.038   7.041
 7660SOL    HW235012   4.003   2.106   7.160
 7661SOL     OW35013   6.591   7.042   7.044
 7661SOL    HW135014   6.494   7.063   7.027
 7661SOL    HW235015   6.644   7.126   7.036
 7662SOL     OW35016   2.858   1.120   7.211
 7662SOL    HW135017   2.820   1.187   7.146
 7662SOL    HW235018   2.951   1.098   7.185
 7663SOL     OW35019   4.953   1.254   6.983
 7663SOL    HW135020   4.952   1.165   7.030
 7663SOL    HW235021   5.019   1.314   7.028
 7664SOL     OW35022   1.727   3.078   4.384
 7664SOL    HW135023   1.804   3.135   4.355
 7664SOL    HW235024   1.711   3.007   4.316
 7665SOL     OW35025   5.952   0.870   4.667
 7665SOL    HW135026   5.872   0.833   4.716
 7665SOL    HW235027   6.020   0.799   4.657
 7666SOL     OW35028   2.016   3.393   7.218
 7666SOL    HW135029   1.923   3.378   7.184
 7666SOL    HW235030   2.035   3.491   7.220
 7667SOL     OW35031   1.653   1.790   3.452
 7667SOL    HW135032   1.721   1.718   3.437
 7667SOL    HW235033   1.563   1.749   3.460
 7668SOL     OW35034   6.322   0.328   3.792
 7668SOL    HW135035   6.250   0.332   3.722
 7668SOL    HW235036   6.411   0.317   3.748
 7669SOL     OW35037   3.994   1.137   7.242
 7669SOL    HW135038   4.079   1.115   7.193
 7669SOL    HW235039   3.918   1.136   7.178
 7670SOL     OW35040   1.580   0.789   3.973
 7670SOL    HW135041   1.533   0.710   3.932
 7670SOL    HW235042   1.555   0.871   3.923
 7671SOL     OW35043   7.254   6.342   0.031
 7671SOL    HW135044   7.302   6.254   0.027
 7671SOL    HW235045   7.165   6.332  -0.014
 7672SOL     OW35046   5.376   1.979   0.069
 7672SOL    HW135047   5.322   1.984  -0.016
 7672SOL    HW235048   5.398   2.071   0.099
 7673SOL     OW35049   4.099   3.608   7.254
 7673SOL    HW135050   4.156   3.557   7.188
 7673SOL    HW235051   4.010   3.626   7.213
 7674SOL     OW35052   5.365   6.295   0.118
 7674SOL    HW135053   5.345   6.208   0.071
 7674SOL    HW235054   5.374   6.367   0.050
 7675SOL     OW35055   3.226   5.990   6.621
 7675SOL    HW135056   3.288   5.945   6.685
 7675SOL    HW235057   3.147   6.025   6.671
 7676SOL     OW35058   6.717   5.367   0.121
 7676SOL    HW135059   6.811   5.333   0.106
 7676SOL    HW235060   6.671   5.377   0.034
 7677SOL     OW35061   8.576   2.774   7.128
 7677SOL    HW135062   8.580   2.845   7.057
 7677SOL    HW235063   8.620   2.691   7.094
 7678SOL     OW35064   3.793   3.431   0.093
 7678SOL    HW135065   3.788   3.512   0.152
 7678SOL    HW235066   3.724   3.365   0.121
 7679SOL     OW35067   2.149   5.586   7.176
 7679SOL    HW135068   2.089   5.595   7.096
 7679SOL    HW235069   2.174   5.490   7.188
 7680SOL     OW35070   4.737   1.251   7.224
 7680SOL    HW135071   4.726   1.316   7.300
 7680SOL    HW235072   4.736   1.300   7.138
 7681SOL     OW35073   5.611   6.445   4.496
 7681SOL    HW135074   5.549   6.403   4.563
 7681SOL    HW235075   5.681   6.497   4.543
 7682SOL     OW35076   7.128   6.606   7.161
 7682SOL    HW135077   7.048   6.611   7.221
 7682SOL    HW235078   7.102   6.561   7.076
 7683SOL     OW35079   3.702   3.002  -0.005
 7683SOL    HW135080   3.711   2.931   0.065
 7683SOL    HW235081   3.642   3.074   0.028
 7684SOL     OW35082   8.101   1.509   7.148
 7684SOL    HW135083   8.114   1.431   7.085
 7684SOL    HW235084   8.004   1.525   7.161
 7685SOL     OW35085   8.684   4.846   3.526
 7685SOL    HW135086   8.707   4.895   3.441
 7685SOL    HW235087   8.653   4.912   3.594
 7686SOL     OW35088   5.203   3.692   6.952
 7686SOL    HW135089   5.257   3.726   6.875
 7686SOL    HW235090   5.254   3.621   7.000
 7687SOL     OW35091   7.192   7.426   3.251
 7687SOL    HW135092   7.140   7.483   3.315
 7687SOL    HW235093   7.179   7.330   3.274
 7688SOL     OW35094   1.828   7.789   0.054
 7688SOL    HW135095   1.893   7.866   0.061
 7688SOL    HW235096   1.875   7.704   0.075
 7689SOL     OW35097   2.588   5.513   7.115
 7689SOL    HW135098   2.556   5.512   7.210
 7689SOL    HW235099   2.530   5.453   7.060
 7690SOL     OW35100   0.303   1.140   0.159
 7690SOL    HW135101   0.393   1.160   0.198
 7690SOL    HW235102   0.283   1.206   0.088
 7691SOL     OW35103   7.213   7.971   7.134
 7691SOL    HW135104   7.149   7.956   7.058
 7691SOL    HW235105   7.184   8.051   7.186
 7692SOL     OW35106   1.805   0.829   6.484
 7692SOL    HW135107   1.735   0.785   6.541
 7692SOL    HW235108   1.845   0.905   6.535
 7693SOL     OW35109   6.039   4.924   2.918
 7693SOL    HW135110   6.079   4.983   2.988
 7693SOL    HW235111   6.002   4.842   2.961
 7694SOL     OW35112   7.257   3.425   3.753
 7694SOL    HW135113   7.291   3.370   3.830
 7694SOL    HW235114   7.164   3.455   3.772
 7695SOL     OW35115   4.875   2.796   0.038
 7695SOL    HW135116   4.939   2.834  -0.029
 7695SOL    HW235117   4.851   2.703   0.012
 7696SOL     OW35118   8.081   2.220   2.862
 7696SOL    HW135119   8.017   2.158   2.909
 7696SOL    HW235120   8.132   2.272   2.930
 7697SOL     OW35121   5.871   0.677   7.273
 7697SOL    HW135122   5.785   0.722   7.248
 7697SOL    HW235123   5.937   0.689   7.201
 7698SOL     OW35124   6.250   6.398   7.110
 7698SOL    HW135125   6.301   6.455   7.045
 7698SOL    HW235126   6.313   6.361   7.178
 7699SOL     OW35127   0.537   2.810   7.205
 7699SOL    HW135128   0.519   2.860   7.291
 7699SOL    HW235129   0.466   2.741   7.192
 7700SOL     OW35130   7.405   6.071   2.298
 7700SOL    HW135131   7.309   6.058   2.325
 7700SOL    HW235132   7.464   6.031   2.367
 7701SOL     OW35133   7.763   7.285   2.791
 7701SOL    HW135134   7.847   7.282   2.737
 7701SOL    HW235135   7.696   7.342   2.745
 7702SOL     OW35136   4.467   4.565   0.014
 7702SOL    HW135137   4.394   4.557  -0.054
 7702SOL    HW235138   4.438   4.627   0.086
 7703SOL     OW35139   5.987   4.193   3.423
 7703SOL    HW135140   5.992   4.098   3.453
 7703SOL    HW235141   5.995   4.253   3.501
 7704SOL     OW35142   6.505   8.322   0.253
 7704SOL    HW135143   6.419   8.271   0.244
 7704SOL    HW235144   6.485   8.415   0.282
 7705SOL     OW35145   0.111   1.760   3.768
 7705SOL    HW135146   0.173   1.814   3.826
 7705SOL    HW235147   0.071   1.818   3.698
 7706SOL     OW35148   3.429   6.742   2.593
 7706SOL    HW135149   3.442   6.841   2.588
 7706SOL    HW235150   3.403   6.716   2.685
 7707SOL     OW35151   8.665   3.393   3.834
 7707SOL    HW135152   8.694   3.403   3.930
 7707SOL    HW235153   8.618   3.476   3.805
 7708SOL     OW35154   4.219   8.017   3.682
 7708SOL    HW135155   4.137   7.958   3.680
 7708SOL    HW235156   4.295   7.965   3.718
 7709SOL     OW35157   7.511   4.944   3.458
 7709SOL    HW135158   7.538   4.978   3.549
 7709SOL    HW235159   7.440   5.003   3.421
 7710SOL     OW35160   8.494   4.935   7.088
 7710SOL    HW135161   8.557   4.998   7.041
 7710SOL    HW235162   8.477   4.856   7.030
 7711SOL     OW35163   0.377   8.509   3.913
 7711SOL    HW135164   0.380   8.493   3.814
 7711SOL    HW235165   0.344   8.427   3.958
 7712SOL     OW35166   5.084   6.823   3.433
 7712SOL    HW135167   5.078   6.897   3.365
 7712SOL    HW235168   5.122   6.742   3.389
 7713SOL     OW35169   6.219   1.350   3.896
 7713SOL    HW135170   6.167   1.414   3.954
 7713SOL    HW235171   6.314   1.379   3.891
 7714SOL     OW35172   7.110   1.890   3.564
 7714SOL    HW135173   7.135   1.830   3.641
 7714SOL    HW235174   7.193   1.916   3.515
 7715SOL     OW35175   8.646   8.096   0.148
 7715SOL    HW135176   8.699   8.040   0.084
 7715SOL    HW235177   8.698   8.176   0.174
 7716SOL     OW35178   3.145   4.422   7.170
 7716SOL    HW135179   3.163   4.338   7.221
 7716SOL    HW235180   3.214   4.434   7.100
 7717SOL     OW35181   3.115   7.256   3.159
 7717SOL    HW135182   3.149   7.206   3.078
 7717SOL    HW235183   3.031   7.303   3.136
 7718SOL     OW35184   6.332   4.756   3.003
 7718SOL    HW135185   6.353   4.694   2.927
 7718SOL    HW235186   6.275   4.830   2.970
 7719SOL     OW35187   6.354   1.913   4.496
 7719SOL    HW135188   6.401   1.950   4.577
 7719SOL    HW235189   6.369   1.815   4.491
 7720SOL     OW35190   6.028   2.889   4.135
 7720SOL    HW135191   6.103   2.853   4.192
 7720SOL    HW235192   6.056   2.976   4.096
 7721SOL     OW35193   6.975   7.346   7.057
 7721SOL    HW135194   6.950   7.401   7.137
 7721SOL    HW235195   7.023   7.264   7.086
 7722SOL     OW35196   8.168   4.102   7.241
 7722SOL    HW135197   8.213   4.014   7.260
 7722SOL    HW235198   8.188   4.130   7.147
 7723SOL     OW35199   2.923   5.658   3.502
 7723SOL    HW135200   2.897   5.750   3.533
 7723SOL    HW235201   2.936   5.599   3.580
 7724SOL     OW35202   7.849   1.485   0.852
 7724SOL    HW135203   7.936   1.470   0.804
 7724SOL    HW235204   7.832   1.583   0.858
 7725SOL     OW35205   7.911   0.548   7.079
 7725SOL    HW135206   7.889   0.529   7.175
 7725SOL    HW235207   7.864   0.483   7.020
 7726SOL     OW35208   6.370   5.961   7.246
 7726SOL    HW135209   6.273   5.963   7.273
 7726SOL    HW235210   6.376   5.974   7.147
 7727SOL     OW35211   7.279   5.577   4.010
 7727SOL    HW135212   7.311   5.545   4.100
 7727SOL    HW235213   7.271   5.676   4.012
 7728SOL     OW35214   4.873   1.664   3.663
 7728SOL    HW135215   4.831   1.633   3.577
 7728SOL    HW235216   4.945   1.600   3.689
 7729SOL     OW35217   2.573   5.134   7.125
 7729SOL    HW135218   2.560   5.234   7.119
 7729SOL    HW235219   2.642   5.107   7.058
 7730SOL     OW35220   2.165   7.282   3.325
 7730SOL    HW135221   2.167   7.269   3.425
 7730SOL    HW235222   2.077   7.319   3.299
 7731SOL     OW35223   4.331   6.708   6.258
 7731SOL    HW135224   4.393   6.668   6.326
 7731SOL    HW235225   4.332   6.807   6.268
 7732SOL     OW35226   0.852   5.973   3.518
 7732SOL    HW135227   0.856   6.063   3.562
 7732SOL    HW235228   0.899   5.906   3.575
 7733SOL     OW35229   5.778   2.857   0.240
 7733SOL    HW135230   5.695   2.822   0.195
 7733SOL    HW235231   5.753   2.913   0.317
 7734SOL     OW35232   0.891   0.407   3.817
 7734SOL    HW135233   0.873   0.486   3.758
 7734SOL    HW235234   0.941   0.338   3.765
 7735SOL     OW35235   0.718   2.782   3.196
 7735SOL    HW135236   0.803   2.786   3.141
 7735SOL    HW235237   0.718   2.699   3.251
 7736SOL     OW35238   0.965   2.146   0.038
 7736SOL    HW135239   0.976   2.091  -0.045
 7736SOL    HW235240   0.957   2.242   0.012
 7737SOL     OW35241   2.464   3.711   0.088
 7737SOL    HW135242   2.523   3.709   0.007
 7737SOL    HW235243   2.420   3.800   0.094
 7738SOL     OW35244   2.886   4.903   2.566
 7738SOL    HW135245   2.870   4.995   2.604
 7738SOL    HW235246   2.837   4.836   2.621
 7739SOL     OW35247   6.534   1.697   4.699
 7739SOL    HW135248   6.525   1.772   4.765
 7739SOL    HW235249   6.630   1.669   4.694
 7740SOL     OW35250   8.651   4.557   3.536
 7740SOL    HW135251   8.650   4.478   3.474
 7740SOL    HW235252   8.713   4.538   3.611
 7741SOL     OW35253   8.708   5.296   7.017
 7741SOL    HW135254   8.710   5.387   6.975
 7741SOL    HW235255   8.761   5.298   7.101
 7742SOL     OW35256   8.831   7.943   6.552
 7742SOL    HW135257   8.764   7.964   6.624
 7742SOL    HW235258   8.827   8.013   6.482
 7743SOL     OW35259   5.853   5.576   7.128
 7743SOL    HW135260   5.935   5.564   7.185
 7743SOL    HW235261   5.784   5.627   7.178
 7744SOL     OW35262   2.165   4.507   0.174
 7744SOL    HW135263   2.122   4.457   0.098
 7744SOL    HW235264   2.210   4.588   0.139
 7745SOL     OW35265   0.248   6.063   7.175
 7745SOL    HW135266   0.219   6.159   7.183
 7745SOL    HW235267   0.218   6.013   7.255
 7746SOL     OW35268   4.609   2.621   7.174
 7746SOL    HW135269   4.638   2.531   7.142
 7746SOL    HW235270   4.615   2.624   7.273
 7747SOL     OW35271   6.616   2.763   7.112
 7747SOL    HW135272   6.671   2.788   7.193
 7747SOL    HW235273   6.526   2.805   7.120
 7748SOL     OW35274   4.255   6.342   0.039
 7748SOL    HW135275   4.335   6.327   0.099
 7748SOL    HW235276   4.185   6.276   0.061
 7749SOL     OW35277   4.276   6.561   3.352
 7749SOL    HW135278   4.346   6.553   3.280
 7749SOL    HW235279   4.187   6.539   3.315
 7750SOL     OW35280   8.835   7.465   3.352
 7750SOL    HW135281   8.842   7.559   3.317
 7750SOL    HW235282   8.913   7.412   3.324
 7751SOL     OW35283   5.453   2.912   6.938
 7751SOL    HW135284   5.527   2.922   7.005
 7751SOL    HW235285   5.367   2.902   6.986
 7752SOL     OW35286   9.210   3.524   0.077
 7752SOL    HW135287   9.141   3.493   0.144
 7752SOL    HW235288   9.295   3.474   0.091
 7753SOL     OW35289   2.615   7.846   7.083
 7753SOL    HW135290   2.566   7.901   7.151
 7753SOL    HW235291   2.701   7.891   7.060
 7754SOL     OW35292   5.579   3.064   0.123
 7754SOL    HW135293   5.533   3.120   0.054
 7754SOL    HW235294   5.664   3.028   0.085
 7755SOL     OW35295   7.478   5.552   3.190
 7755SOL    HW135296   7.516   5.460   3.178
 7755SOL    HW235297   7.448   5.563   3.284
 7756SOL     OW35298   1.295   1.739   2.966
 7756SOL    HW135299   1.302   1.834   2.934
 7756SOL    HW235300   1.329   1.678   2.896
 7757SOL     OW35301   8.145   7.467  -0.010
 7757SOL    HW135302   8.229   7.412  -0.011
 7757SOL    HW235303   8.141   7.520   0.074
 7758SOL     OW35304   8.920   5.422   3.898
 7758SOL    HW135305   8.918   5.513   3.856
 7758SOL    HW235306   8.977   5.362   3.842
 7759SOL     OW35307   0.235   4.344   3.438
 7759SOL    HW135308   0.150   4.333   3.490
 7759SOL    HW235309   0.312   4.310   3.492
 7760SOL     OW35310   2.278   0.121   0.045
 7760SOL    HW135311   2.197   0.064   0.064
 7760SOL    HW235312   2.342   0.112   0.120
 7761SOL     OW35313   0.661   7.505   0.099
 7761SOL    HW135314   0.746   7.454   0.108
 7761SOL    HW235315   0.642   7.554   0.184
 7762SOL     OW35316   8.072   1.895   7.211
 7762SOL    HW135317   8.138   1.940   7.272
 7762SOL    HW235318   7.980   1.923   7.236
 7763SOL     OW35319   0.804   8.106   7.187
 7763SOL    HW135320   0.854   8.044   7.125
 7763SOL    HW235321   0.724   8.141   7.140
 7764SOL     OW35322   4.744   4.017   2.693
 7764SOL    HW135323   4.723   4.030   2.595
 7764SOL    HW235324   4.663   4.037   2.747
 7765SOL     OW35325   0.228   3.188   7.126
 7765SOL    HW135326   0.159   3.172   7.054
 7765SOL    HW235327   0.295   3.253   7.093
 7766SOL     OW35328   8.556   0.121   2.961
 7766SOL    HW135329   8.539   0.200   3.020
 7766SOL    HW235330   8.587   0.153   2.872
 7767SOL     OW35331   5.915   2.630   3.393
 7767SOL    HW135332   5.988   2.617   3.460
 7767SOL    HW235333   5.830   2.654   3.440
 7768SOL     OW35334   4.385   0.989   0.028
 7768SOL    HW135335   4.403   0.890   0.026
 7768SOL    HW235336   4.469   1.038   0.006
 7769SOL     OW35337   0.520   0.364   7.167
 7769SOL    HW135338   0.431   0.347   7.124
 7769SOL    HW235339   0.555   0.279   7.205
 7770SOL     OW35340   9.448   6.609   3.040
 7770SOL    HW135341   9.478   6.704   3.047
 7770SOL    HW235342   9.523   6.549   3.065
 7771SOL     OW35343   2.253   1.325   7.227
 7771SOL    HW135344   2.327   1.269   7.188
 7771SOL    HW235345   2.202   1.368   7.153
 7772SOL     OW35346   8.953   6.675   7.079
 7772SOL    HW135347   9.047   6.711   7.079
 7772SOL    HW235348   8.903   6.713   7.003
 7773SOL     OW35349   5.629   6.488   3.322
 7773SOL    HW135350   5.564   6.518   3.251
 7773SOL    HW235351   5.721   6.516   3.296
 7774SOL     OW35352   1.676   1.026   6.200
 7774SOL    HW135353   1.761   1.010   6.251
 7774SOL    HW235354   1.681   1.115   6.157
 7775SOL     OW35355   7.258   7.743   4.010
 7775SOL    HW135356   7.346   7.720   4.052
 7775SOL    HW235357   7.218   7.662   3.969
 7776SOL     OW35358   1.008   7.089   7.173
 7776SOL    HW135359   1.043   7.024   7.241
 7776SOL    HW235360   1.004   7.180   7.212
 7777SOL     OW35361   8.868   1.130   6.225
 7777SOL    HW135362   8.856   1.229   6.237
 7777SOL    HW235363   8.911   1.091   6.305
 7778SOL     OW35364   6.436   1.964   0.153
 7778SOL    HW135365   6.498   1.915   0.090
 7778SOL    HW235366   6.352   1.988   0.106
 7779SOL     OW35367   1.517   3.719   7.176
 7779SOL    HW135368   1.484   3.728   7.081
 7779SOL    HW235369   1.589   3.785   7.192
 7780SOL     OW35370   7.614   0.511   0.080
 7780SOL    HW135371   7.656   0.531  -0.009
 7780SOL    HW235372   7.568   0.593   0.114
 7781SOL     OW35373   3.158   0.962   2.882
 7781SOL    HW135374   3.231   0.901   2.913
 7781SOL    HW235375   3.174   0.985   2.787
 7782SOL     OW35376   7.820   5.158   0.378
 7782SOL    HW135377   7.906   5.162   0.327
 7782SOL    HW235378   7.750   5.116   0.321
 7783SOL     OW35379   6.690   2.525   4.079
 7783SOL    HW135380   6.750   2.509   4.000
 7783SOL    HW235381   6.596   2.507   4.053
 7784SOL     OW35382   0.893   6.202   7.158
 7784SOL    HW135383   0.804   6.169   7.190
 7784SOL    HW235384   0.926   6.273   7.219
 7785SOL     OW35385   5.829   1.188   7.042
 7785SOL    HW135386   5.900   1.213   7.108
 7785SOL    HW235387   5.743   1.175   7.089
 7786SOL     OW35388   6.094   2.148   2.653
 7786SOL    HW135389   6.061   2.097   2.573
 7786SOL    HW235390   6.193   2.140   2.658
 7787SOL     OW35391   0.393   3.330   2.775
 7787SOL    HW135392   0.366   3.426   2.786
 7787SOL    HW235393   0.483   3.316   2.816
 7788SOL     OW35394   9.310   5.568   3.295
 7788SOL    HW135395   9.365   5.515   3.359
 7788SOL    HW235396   9.285   5.655   3.336
 7789SOL     OW35397   7.391   3.370   4.097
 7789SOL    HW135398   7.380   3.309   4.176
 7789SOL    HW235399   7.487   3.375   4.072
 7790SOL     OW35400   3.117   6.123   7.233
 7790SOL    HW135401   3.203   6.119   7.180
 7790SOL    HW235402   3.124   6.196   7.300
 7791SOL     OW35403   3.264   2.564   7.128
 7791SOL    HW135404   3.207   2.630   7.178
 7791SOL    HW235405   3.294   2.492   7.190
 7792SOL     OW35406   2.568   6.878   0.036
 7792SOL    HW135407   2.631   6.865   0.113
 7792SOL    HW235408   2.524   6.792   0.014
 7793SOL     OW35409   5.780   3.507   4.230
 7793SOL    HW135410   5.706   3.495   4.163
 7793SOL    HW235411   5.856   3.448   4.207
 7794SOL     OW35412   9.369   0.397   7.100
 7794SOL    HW135413   9.362   0.370   7.003
 7794SOL    HW235414   9.413   0.324   7.151
 7795SOL     OW35415   6.216   7.292   0.194
 7795SOL    HW135416   6.210   7.306   0.094
 7795SOL    HW235417   6.311   7.297   0.222
 7796SOL     OW35418   6.197   0.060   0.221
 7796SOL    HW135419   6.210   0.004   0.304
 7796SOL    HW235420   6.111   0.035   0.178
 7797SOL     OW35421   5.726   4.454   3.881
 7797SOL    HW135422   5.796   4.384   3.899
 7797SOL    HW235423   5.653   4.444   3.948
 7798SOL     OW35424   1.117   1.286   2.645
 7798SOL    HW135425   1.153   1.368   2.599
 7798SOL    HW235426   1.119   1.210   2.582
 7799SOL     OW35427   3.237   1.659   7.082
 7799SOL    HW135428   3.276   1.752   7.077
 7799SOL    HW235429   3.233   1.620   6.990
 7800SOL     OW35430   3.572   6.905   4.245
 7800SOL    HW135431   3.562   6.919   4.344
 7800SOL    HW235432   3.495   6.948   4.198
 7801SOL     OW35433   7.800   7.140   3.548
 7801SOL    HW135434   7.898   7.152   3.531
 7801SOL    HW235435   7.763   7.224   3.586
 7802SOL     OW35436   3.492   2.770   0.066
 7802SOL    HW135437   3.448   2.716  -0.007
 7802SOL    HW235438   3.425   2.832   0.106
 7803SOL     OW35439   3.234   5.372   0.150
 7803SOL    HW135440   3.307   5.437   0.171
 7803SOL    HW235441   3.154   5.422   0.119
 7804SOL     OW35442   8.373   4.990   3.428
 7804SOL    HW135443   8.280   4.998   3.467
 7804SOL    HW235444   8.413   4.904   3.457
 7805SOL     OW35445   6.663   3.722   3.473
 7805SOL    HW135446   6.761   3.707   3.456
 7805SOL    HW235447   6.651   3.755   3.566
 7806SOL     OW35448   4.446   3.764   0.088
 7806SOL    HW135449   4.394   3.749   0.173
 7806SOL    HW235450   4.405   3.712   0.015
 7807SOL     OW35451   5.058   3.336   3.992
 7807SOL    HW135452   5.098   3.399   4.060
 7807SOL    HW235453   4.980   3.290   4.032
 7808SOL     OW35454   6.157   7.691   3.013
 7808SOL    HW135455   6.147   7.591   3.013
 7808SOL    HW235456   6.254   7.714   3.005
 7809SOL     OW35457   5.032   0.123   7.205
 7809SOL    HW135458   4.978   0.156   7.127
 7809SOL    HW235459   5.121   0.167   7.205
 7810SOL     OW35460   1.230   8.316   3.439
 7810SOL    HW135461   1.171   8.369   3.378
 7810SOL    HW235462   1.245   8.226   3.401
 7811SOL     OW35463   6.325   6.730   7.162
 7811SOL    HW135464   6.402   6.740   7.097
 7811SOL    HW235465   6.248   6.688   7.116
 7812SOL     OW35466   3.366   0.032   3.705
 7812SOL    HW135467   3.433   0.041   3.631
 7812SOL    HW235468   3.281   0.074   3.677
 7813SOL     OW35469   6.153   4.440   3.640
 7813SOL    HW135470   6.067   4.467   3.595
 7813SOL    HW235471   6.158   4.341   3.643
 7814SOL     OW35472   3.902   7.490   0.014
 7814SOL    HW135473   3.809   7.529   0.024
 7814SOL    HW235474   3.921   7.432   0.092
 7815SOL     OW35475   2.820   6.250   2.885
 7815SOL    HW135476   2.830   6.172   2.822
 7815SOL    HW235477   2.894   6.247   2.952
 7816SOL     OW35478   6.756   3.092   4.206
 7816SOL    HW135479   6.782   3.147   4.285
 7816SOL    HW235480   6.737   3.151   4.129
 7817SOL     OW35481   5.702   6.010   7.050
 7817SOL    HW135482   5.693   6.109   7.037
 7817SOL    HW235483   5.794   5.981   7.026
 7818SOL     OW35484   7.583   3.724   0.171
 7818SOL    HW135485   7.640   3.734   0.089
 7818SOL    HW235486   7.513   3.794   0.170
 7819SOL     OW35487   1.388   7.857   3.876
 7819SOL    HW135488   1.385   7.833   3.779
 7819SOL    HW235489   1.480   7.843   3.911
 7820SOL     OW35490   0.070   5.092   2.983
 7820SOL    HW135491   0.002   5.018   2.975
 7820SOL    HW235492   0.026   5.179   2.964
 7821SOL     OW35493   5.627   1.256   3.569
 7821SOL    HW135494   5.526   1.259   3.573
 7821SOL    HW235495   5.658   1.164   3.586
 7822SOL     OW35496   3.901   1.565   7.202
 7822SOL    HW135497   3.839   1.488   7.219
 7822SOL    HW235498   3.873   1.611   7.118
 7823SOL     OW35499   3.513   1.459   4.384
 7823SOL    HW135500   3.563   1.497   4.462
 7823SOL    HW235501   3.444   1.524   4.354
 7824SOL     OW35502   8.033   4.206   5.020
 7824SOL    HW135503   8.087   4.182   4.939
 7824SOL    HW235504   7.994   4.297   5.007
 7825SOL     OW35505   4.527   1.937   4.069
 7825SOL    HW135506   4.483   1.906   3.984
 7825SOL    HW235507   4.541   2.035   4.065
 7826SOL     OW35508   0.594   7.604   2.394
 7826SOL    HW135509   0.546   7.673   2.449
 7826SOL    HW235510   0.567   7.513   2.425
 7827SOL     OW35511   1.988   0.686   3.927
 7827SOL    HW135512   1.933   0.640   3.856
 7827SOL    HW235513   1.951   0.777   3.943
 7828SOL     OW35514   3.907   5.266   3.529
 7828SOL    HW135515   3.919   5.297   3.434
 7828SOL    HW235516   3.903   5.345   3.589
 7829SOL     OW35517   2.122   7.223   7.144
 7829SOL    HW135518   2.152   7.237   7.239
 7829SOL    HW235519   2.022   7.217   7.142
 7830SOL     OW35520   3.939   6.698   4.722
 7830SOL    HW135521   3.955   6.776   4.782
 7830SOL    HW235522   3.924   6.616   4.777
 7831SOL     OW35523   4.771   4.243   3.964
 7831SOL    HW135524   4.716   4.163   3.987
 7831SOL    HW235525   4.776   4.304   4.043
 7832SOL     OW35526   6.395   5.570   2.925
 7832SOL    HW135527   6.452   5.647   2.954
 7832SOL    HW235528   6.317   5.562   2.987
 7833SOL     OW35529   5.347   0.760   0.143
 7833SOL    HW135530   5.277   0.786   0.209
 7833SOL    HW235531   5.403   0.687   0.181
 7834SOL     OW35532   0.229   0.994   2.842
 7834SOL    HW135533   0.221   1.084   2.886
 7834SOL    HW235534   0.156   0.984   2.775
 7835SOL     OW35535   3.202   2.383   6.898
 7835SOL    HW135536   3.126   2.383   6.964
 7835SOL    HW235537   3.279   2.334   6.937
 7836SOL     OW35538   7.798   2.432   0.045
 7836SOL    HW135539   7.837   2.382  -0.032
 7836SOL    HW235540   7.699   2.421   0.046
 7837SOL     OW35541   7.062   3.950   4.597
 7837SOL    HW135542   7.149   3.970   4.551
 7837SOL    HW235543   7.080   3.924   4.691
 7838SOL     OW35544   0.756   7.130   2.377
 7838SOL    HW135545   0.819   7.205   2.400
 7838SOL    HW235546   0.797   7.073   2.308
 7839SOL     OW35547   8.487   2.308   4.068
 7839SOL    HW135548   8.463   2.397   4.028
 7839SOL    HW235549   8.582   2.310   4.098
 7840SOL     OW35550   7.101   1.601   0.287
 7840SOL    HW135551   7.129   1.623   0.193
 7840SOL    HW235552   7.077   1.505   0.294
 7841SOL     OW35553   4.556   6.588   4.595
 7841SOL    HW135554   4.501   6.532   4.532
 7841SOL    HW235555   4.573   6.677   4.554
 7842SOL     OW35556   1.026   5.247   0.007
 7842SOL    HW135557   0.987   5.316   0.069
 7842SOL    HW235558   0.996   5.157   0.035
 7843SOL     OW35559   2.391   6.117   3.312
 7843SOL    HW135560   2.377   6.144   3.216
 7843SOL    HW235561   2.479   6.072   3.322
 7844SOL     OW35562   9.396   4.999   2.632
 7844SOL    HW135563   9.377   4.907   2.669
 7844SOL    HW235564   9.422   5.060   2.706
 7845SOL     OW35565   3.201   5.848   7.193
 7845SOL    HW135566   3.233   5.757   7.165
 7845SOL    HW235567   3.279   5.910   7.197
 7846SOL     OW35568   9.138   7.918   0.316
 7846SOL    HW135569   9.153   8.002   0.369
 7846SOL    HW235570   9.088   7.853   0.372
 7847SOL     OW35571   2.904   6.830   0.200
 7847SOL    HW135572   2.870   6.864   0.112
 7847SOL    HW235573   2.934   6.736   0.190
 7848SOL     OW35574   0.641   3.481   0.346
 7848SOL    HW135575   0.656   3.576   0.317
 7848SOL    HW235576   0.599   3.430   0.272
 7849SOL     OW35577   1.999   1.825   0.516
 7849SOL    HW135578   2.079   1.797   0.570
 7849SOL    HW235579   1.942   1.885   0.570
 7850SOL     OW35580   6.227   4.452   6.222
 7850SOL    HW135581   6.132   4.431   6.249
 7850SOL    HW235582   6.244   4.417   6.131
 7851SOL     OW35583   2.842   2.901   7.121
 7851SOL    HW135584   2.886   2.991   7.126
 7851SOL    HW235585   2.888   2.838   7.182
 7852SOL     OW35586   1.321   2.853   7.170
 7852SOL    HW135587   1.410   2.822   7.205
 7852SOL    HW235588   1.276   2.777   7.125
 7853SOL     OW35589   8.924   0.704   3.844
 7853SOL    HW135590   8.831   0.720   3.810
 7853SOL    HW235591   8.983   0.681   3.768
 7854SOL     OW35592   1.466   0.322   7.254
 7854SOL    HW135593   1.505   0.397   7.199
 7854SOL    HW235594   1.377   0.297   7.216
 7855SOL     OW35595   5.196   2.214   0.107
 7855SOL    HW135596   5.165   2.260   0.023
 7855SOL    HW235597   5.255   2.276   0.158
 7856SOL     OW35598   7.665   1.701   3.932
 7856SOL    HW135599   7.701   1.771   3.869
 7856SOL    HW235600   7.649   1.617   3.883
 7857SOL     OW35601   8.447   3.632   4.696
 7857SOL    HW135602   8.464   3.695   4.619
 7857SOL    HW235603   8.356   3.593   4.686
 7858SOL     OW35604   7.932   1.096   4.388
 7858SOL    HW135605   7.932   1.140   4.478
 7858SOL    HW235606   7.841   1.101   4.349
 7859SOL     OW35607   7.122   2.572   6.587
 7859SOL    HW135608   7.185   2.582   6.665
 7859SOL    HW235609   7.174   2.568   6.503
 7860SOL     OW35610   6.066   3.254   3.702
 7860SOL    HW135611   6.047   3.222   3.795
 7860SOL    HW235612   6.164   3.253   3.686
 7861SOL     OW35613   5.172   5.483   0.054
 7861SOL    HW135614   5.243   5.418   0.024
 7861SOL    HW235615   5.150   5.544  -0.021
 7862SOL     OW35616   2.595   8.215   4.132
 7862SOL    HW135617   2.566   8.195   4.038
 7862SOL    HW235618   2.582   8.312   4.151
 7863SOL     OW35619   0.678   1.412   3.771
 7863SOL    HW135620   0.675   1.393   3.673
 7863SOL    HW235621   0.601   1.367   3.815
 7864SOL     OW35622   7.904   3.204   3.502
 7864SOL    HW135623   7.866   3.262   3.576
 7864SOL    HW235624   7.844   3.126   3.487
 7865SOL     OW35625   8.476   6.094   0.007
 7865SOL    HW135626   8.552   6.089   0.072
 7865SOL    HW235627   8.434   6.184   0.012
 7866SOL     OW35628   0.710   5.903   0.052
 7866SOL    HW135629   0.745   5.811   0.031
 7866SOL    HW235630   0.625   5.918   0.003
 7867SOL     OW35631   6.770   3.001   0.091
 7867SOL    HW135632   6.807   3.095   0.085
 7867SOL    HW235633   6.843   2.939   0.120
 7868SOL     OW35634   7.607   1.691   6.261
 7868SOL    HW135635   7.554   1.776   6.256
 7868SOL    HW235636   7.630   1.661   6.169
 7869SOL     OW35637   6.659   7.527   2.495
 7869SOL    HW135638   6.697   7.435   2.483
 7869SOL    HW235639   6.625   7.537   2.588
 7870SOL     OW35640   3.103   7.074   0.074
 7870SOL    HW135641   3.042   7.062   0.153
 7870SOL    HW235642   3.145   7.164   0.078
 7871SOL     OW35643   6.211   1.861   0.411
 7871SOL    HW135644   6.219   1.960   0.398
 7871SOL    HW235645   6.225   1.815   0.324
 7872SOL     OW35646   4.500   7.023   3.094
 7872SOL    HW135647   4.598   7.021   3.114
 7872SOL    HW235648   4.486   7.046   2.998
 7873SOL     OW35649   4.778   2.653   3.683
 7873SOL    HW135650   4.829   2.726   3.730
 7873SOL    HW235651   4.731   2.692   3.604
 7874SOL     OW35652   6.983   7.010   3.980
 7874SOL    HW135653   7.022   7.007   4.072
 7874SOL    HW235654   6.931   6.927   3.963
 7875SOL     OW35655   0.617   2.623   2.877
 7875SOL    HW135656   0.593   2.605   2.973
 7875SOL    HW235657   0.685   2.695   2.874
 7876SOL     OW35658   5.419   4.514   7.036
 7876SOL    HW135659   5.518   4.526   7.021
 7876SOL    HW235660   5.391   4.428   6.997
 7877SOL     OW35661   0.206   5.492   2.438
 7877SOL    HW135662   0.264   5.562   2.395
 7877SOL    HW235663   0.168   5.529   2.523
 7878SOL     OW35664   4.569   2.905   2.973
 7878SOL    HW135665   4.587   2.975   2.903
 7878SOL    HW235666   4.590   2.815   2.936
 7879SOL     OW35667   9.162   2.787   4.184
 7879SOL    HW135668   9.185   2.803   4.280
 7879SOL    HW235669   9.243   2.760   4.133
 7880SOL     OW35670   7.536   4.716   0.033
 7880SOL    HW135671   7.551   4.717  -0.066
 7880SOL    HW235672   7.617   4.750   0.080
 7881SOL     OW35673   1.557   7.649   7.010
 7881SOL    HW135674   1.582   7.638   7.106
 7881SOL    HW235675   1.628   7.700   6.963
 7882SOL     OW35676   4.567   3.890   5.000
 7882SOL    HW135677   4.598   3.943   5.079
 7882SOL    HW235678   4.612   3.922   4.918
 7883SOL     OW35679   0.198   7.956   2.924
 7883SOL    HW135680   0.170   8.008   2.844
 7883SOL    HW235681   0.282   7.994   2.961
 7884SOL     OW35682   6.151   6.119   3.731
 7884SOL    HW135683   6.161   6.064   3.815
 7884SOL    HW235684   6.192   6.208   3.745
 7885SOL     OW35685   2.411   6.336   4.496
 7885SOL    HW135686   2.446   6.429   4.485
 7885SOL    HW235687   2.338   6.320   4.430
 7886SOL     OW35688   2.793   4.924   3.526
 7886SOL    HW135689   2.729   4.921   3.449
 7886SOL    HW235690   2.747   4.890   3.608
 7887SOL     OW35691   7.784   5.068   3.842
 7887SOL    HW135692   7.840   5.006   3.787
 7887SOL    HW235693   7.710   5.017   3.884
 7888SOL     OW35694   6.617   0.575   3.677
 7888SOL    HW135695   6.593   0.520   3.596
 7888SOL    HW235696   6.618   0.671   3.651
 7889SOL     OW35697   0.083   3.046   6.141
 7889SOL    HW135698   0.051   2.987   6.215
 7889SOL    HW235699   0.120   3.130   6.179
 7890SOL     OW35700   0.091   3.433   6.478
 7890SOL    HW135701   0.101   3.362   6.408
 7890SOL    HW235702   0.044   3.511   6.438
 7891SOL     OW35703   5.133   1.370   4.065
 7891SOL    HW135704   5.143   1.469   4.047
 7891SOL    HW235705   5.202   1.341   4.130
 7892SOL     OW35706   0.920   2.595   7.114
 7892SOL    HW135707   0.981   2.618   7.038
 7892SOL    HW235708   0.963   2.526   7.171
 7893SOL     OW35709   8.125   7.715   7.084
 7893SOL    HW135710   8.139   7.674   6.994
 7893SOL    HW235711   8.211   7.713   7.134
 7894SOL     OW35712   4.319   1.655   6.853
 7894SOL    HW135713   4.345   1.633   6.758
 7894SOL    HW235714   4.271   1.577   6.892
 7895SOL     OW35715   0.069   1.335   7.253
 7895SOL    HW135716   0.078   1.428   7.218
 7895SOL    HW235717   0.043   1.274   7.178
 7896SOL     OW35718   4.897   4.139   7.140
 7896SOL    HW135719   4.986   4.137   7.094
 7896SOL    HW235720   4.909   4.169   7.234
 7897SOL     OW35721   3.743   4.544   0.175
 7897SOL    HW135722   3.797   4.478   0.228
 7897SOL    HW235723   3.790   4.631   0.172
 7898SOL     OW35724   2.544   3.980   4.125
 7898SOL    HW135725   2.451   3.982   4.087
 7898SOL    HW235726   2.563   4.067   4.170
 7899SOL     OW35727   0.626   5.152   7.002
 7899SOL    HW135728   0.530   5.180   7.002
 7899SOL    HW235729   0.672   5.194   6.924
 7900SOL     OW35730   0.996   2.306   4.448
 7900SOL    HW135731   0.957   2.380   4.504
 7900SOL    HW235732   1.095   2.313   4.447
 7901SOL     OW35733   8.130   2.124   3.379
 7901SOL    HW135734   8.144   2.075   3.465
 7901SOL    HW235735   8.215   2.166   3.350
 7902SOL     OW35736   2.025   0.322   7.134
 7902SOL    HW135737   1.927   0.336   7.114
 7902SOL    HW235738   2.057   0.241   7.086
 7903SOL     OW35739   0.110   6.997   2.948
 7903SOL    HW135740   0.163   6.983   3.032
 7903SOL    HW235741   0.049   6.919   2.934
 7904SOL     OW35742   4.472   3.929   3.025
 7904SOL    HW135743   4.558   3.965   3.063
 7904SOL    HW235744   4.427   3.872   3.093
 7905SOL     OW35745   6.249   5.562   0.044
 7905SOL    HW135746   6.153   5.585   0.026
 7905SOL    HW235747   6.254   5.500   0.122
 7906SOL     OW35748   4.944   5.108   2.437
 7906SOL    HW135749   5.020   5.083   2.498
 7906SOL    HW235750   4.886   5.175   2.482
 7907SOL     OW35751   2.270   0.104   3.528
 7907SOL    HW135752   2.310   0.095   3.437
 7907SOL    HW235753   2.341   0.133   3.592
 7908SOL     OW35754   4.832   1.535   2.720
 7908SOL    HW135755   4.756   1.543   2.785
 7908SOL    HW235756   4.910   1.494   2.766
 7909SOL     OW35757   6.262   0.638   4.647
 7909SOL    HW135758   6.181   0.633   4.707
 7909SOL    HW235759   6.294   0.546   4.628
 7910SOL     OW35760   8.301   2.918   7.123
 7910SOL    HW135761   8.299   2.878   7.031
 7910SOL    HW235762   8.342   2.853   7.186
 7911SOL     OW35763   4.857   2.205   5.073
 7911SOL    HW135764   4.901   2.148   5.003
 7911SOL    HW235765   4.786   2.261   5.032
 7912SOL     OW35766   5.347   5.109   1.140
 7912SOL    HW135767   5.407   5.064   1.073
 7912SOL    HW235768   5.268   5.148   1.093
 7913SOL     OW35769   6.520   0.465   3.997
 7913SOL    HW135770   6.428   0.489   3.964
 7913SOL    HW235771   6.523   0.473   4.096
 7914SOL     OW35772   9.287   1.854   3.562
 7914SOL    HW135773   9.361   1.797   3.599
 7914SOL    HW235774   9.266   1.823   3.469
 7915SOL     OW35775   9.190   4.756   7.182
 7915SOL    HW135776   9.184   4.656   7.187
 7915SOL    HW235777   9.272   4.786   7.229
 7916SOL     OW35778   1.802   4.655   0.079
 7916SOL    HW135779   1.830   4.588   0.008
 7916SOL    HW235780   1.748   4.727   0.037
 7917SOL     OW35781   0.379   6.853   7.266
 7917SOL    HW135782   0.327   6.877   7.184
 7917SOL    HW235783   0.468   6.818   7.240
 7918SOL     OW35784   2.145   5.676   3.351
 7918SOL    HW135785   2.177   5.608   3.417
 7918SOL    HW235786   2.218   5.694   3.285
 7919SOL     OW35787   8.018   3.399   6.923
 7919SOL    HW135788   7.989   3.464   6.852
 7919SOL    HW235789   8.094   3.437   6.974
 7920SOL     OW35790   3.729   0.512   4.032
 7920SOL    HW135791   3.718   0.525   3.932
 7920SOL    HW235792   3.802   0.572   4.064
 7921SOL     OW35793   0.681   2.143   4.211
 7921SOL    HW135794   0.682   2.097   4.300
 7921SOL    HW235795   0.770   2.181   4.192
 7922SOL     OW35796   2.074   6.311   3.842
 7922SOL    HW135797   2.051   6.273   3.933
 7922SOL    HW235798   2.087   6.409   3.850
 7923SOL     OW35799   2.004   8.263   0.037
 7923SOL    HW135800   2.070   8.319   0.088
 7923SOL    HW235801   2.053   8.205  -0.028
 7924SOL     OW35802   4.647   2.091   0.147
 7924SOL    HW135803   4.711   2.153   0.194
 7924SOL    HW235804   4.581   2.057   0.212
 7925SOL     OW35805   3.880   7.162  -0.001
 7925SOL    HW135806   3.928   7.091   0.052
 7925SOL    HW235807   3.947   7.216  -0.050
 7926SOL     OW35808   8.016   7.286   2.927
 7926SOL    HW135809   7.973   7.376   2.915
 7926SOL    HW235810   8.092   7.278   2.863
 7927SOL     OW35811   7.623   7.820   3.295
 7927SOL    HW135812   7.565   7.811   3.213
 7927SOL    HW235813   7.615   7.737   3.349
 7928SOL     OW35814   7.054   1.280   7.019
 7928SOL    HW135815   6.988   1.297   6.945
 7928SOL    HW235816   7.122   1.214   6.988
 7929SOL     OW35817   3.271   3.921   0.261
 7929SOL    HW135818   3.232   3.961   0.344
 7929SOL    HW235819   3.239   3.827   0.252
 7930SOL     OW35820   1.752   8.221   3.416
 7930SOL    HW135821   1.702   8.282   3.354
 7930SOL    HW235822   1.846   8.212   3.385
 7931SOL     OW35823   6.531   1.765   4.097
 7931SOL    HW135824   6.550   1.856   4.059
 7931SOL    HW235825   6.617   1.717   4.112
 7932SOL     OW35826   1.921   1.435   0.060
 7932SOL    HW135827   1.899   1.376  -0.018
 7932SOL    HW235828   1.900   1.529   0.037
 7933SOL     OW35829   3.882   3.864   3.374
 7933SOL    HW135830   3.846   3.772   3.357
 7933SOL    HW235831   3.964   3.878   3.320
 7934SOL     OW35832   5.451   1.041   5.172
 7934SOL    HW135833   5.454   1.084   5.263
 7934SOL    HW235834   5.376   1.078   5.120
 7935SOL     OW35835   9.001   0.754   7.120
 7935SOL    HW135836   9.069   0.779   7.050
 7935SOL    HW235837   8.938   0.686   7.082
 7936SOL     OW35838   4.165   7.944   7.102
 7936SOL    HW135839   4.102   7.911   7.173
 7936SOL    HW235840   4.255   7.958   7.142
 7937SOL     OW35841   7.205   3.646   4.033
 7937SOL    HW135842   7.123   3.705   4.036
 7937SOL    HW235843   7.233   3.626   4.127
 7938SOL     OW35844   2.423   2.491   2.837
 7938SOL    HW135845   2.428   2.435   2.754
 7938SOL    HW235846   2.467   2.579   2.820
 7939SOL     OW35847   8.934   8.267   7.103
 7939SOL    HW135848   8.883   8.353   7.094
 7939SOL    HW235849   8.931   8.237   7.198
 7940SOL     OW35850   3.531   4.230   7.100
 7940SOL    HW135851   3.564   4.300   7.164
 7940SOL    HW235852   3.432   4.225   7.105
 7941SOL     OW35853   0.248   1.364   0.508
 7941SOL    HW135854   0.294   1.275   0.515
 7941SOL    HW235855   0.173   1.357   0.443
 7942SOL     OW35856   1.296   1.638   7.242
 7942SOL    HW135857   1.345   1.670   7.161
 7942SOL    HW235858   1.249   1.553   7.220
 7943SOL     OW35859   6.864   5.940   3.887
 7943SOL    HW135860   6.794   5.917   3.955
 7943SOL    HW235861   6.947   5.889   3.906
 7944SOL     OW35862   6.454   6.143   3.129
 7944SOL    HW135863   6.381   6.146   3.060
 7944SOL    HW235864   6.534   6.099   3.091
 7945SOL     OW35865   3.141   0.459   3.295
 7945SOL    HW135866   3.066   0.471   3.229
 7945SOL    HW235867   3.228   0.481   3.251
 7946SOL     OW35868   4.542   6.682   3.797
 7946SOL    HW135869   4.612   6.670   3.868
 7946SOL    HW235870   4.492   6.766   3.814
 7947SOL     OW35871   2.167   4.074   0.068
 7947SOL    HW135872   2.195   4.103  -0.024
 7947SOL    HW235873   2.247   4.045   0.119
 7948SOL     OW35874   1.657   0.160   0.331
 7948SOL    HW135875   1.727   0.211   0.382
 7948SOL    HW235876   1.701   0.094   0.272
 7949SOL     OW35877   8.691   2.612   3.423
 7949SOL    HW135878   8.597   2.580   3.405
 7949SOL    HW235879   8.723   2.572   3.508
 7950SOL     OW35880   9.061   5.125   2.830
 7950SOL    HW135881   9.022   5.206   2.785
 7950SOL    HW235882   9.000   5.095   2.902
 7951SOL     OW35883   7.053   5.057   0.184
 7951SOL    HW135884   7.013   5.041   0.275
 7951SOL    HW235885   7.053   5.154   0.165
 7952SOL     OW35886   5.483   4.238   4.263
 7952SOL    HW135887   5.499   4.283   4.352
 7952SOL    HW235888   5.498   4.140   4.273
 7953SOL     OW35889   6.477   8.496   3.754
 7953SOL    HW135890   6.489   8.516   3.852
 7953SOL    HW235891   6.559   8.450   3.721
 7954SOL     OW35892   3.998   6.241   3.416
 7954SOL    HW135893   3.984   6.206   3.509
 7954SOL    HW235894   4.093   6.268   3.405
 7955SOL     OW35895   5.582   3.732   0.118
 7955SOL    HW135896   5.597   3.661   0.048
 7955SOL    HW235897   5.491   3.721   0.157
 7956SOL     OW35898   5.338   2.877   4.965
 7956SOL    HW135899   5.371   2.822   5.043
 7956SOL    HW235900   5.247   2.848   4.940
 7957SOL     OW35901   8.927   6.053   0.163
 7957SOL    HW135902   8.960   6.146   0.145
 7957SOL    HW235903   8.920   6.038   0.261
 7958SOL     OW35904   8.176   4.033   2.218
 7958SOL    HW135905   8.198   4.122   2.177
 7958SOL    HW235906   8.079   4.030   2.240
 7959SOL     OW35907   4.327   0.053   7.065
 7959SOL    HW135908   4.387  -0.027   7.076
 7959SOL    HW235909   4.262   0.035   6.992
 7960SOL     OW35910   5.896   6.475   4.226
 7960SOL    HW135911   5.812   6.460   4.173
 7960SOL    HW235912   5.958   6.398   4.212
 7961SOL     OW35913   1.101   3.249   2.849
 7961SOL    HW135914   1.187   3.224   2.894
 7961SOL    HW235915   1.053   3.316   2.904
 7962SOL     OW35916   8.513   5.836   2.550
 7962SOL    HW135917   8.520   5.742   2.586
 7962SOL    HW235918   8.570   5.845   2.470
 7963SOL     OW35919   3.381   1.256   7.118
 7963SOL    HW135920   3.380   1.355   7.136
 7963SOL    HW235921   3.406   1.239   7.023
 7964SOL     OW35922   6.493   2.916   3.695
 7964SOL    HW135923   6.414   2.931   3.635
 7964SOL    HW235924   6.572   2.890   3.640
 7965SOL     OW35925   3.632   7.018   3.912
 7965SOL    HW135926   3.682   7.085   3.856
 7965SOL    HW235927   3.672   7.016   4.003
 7966SOL     OW35928   6.771   6.787   3.361
 7966SOL    HW135929   6.843   6.814   3.296
 7966SOL    HW235930   6.704   6.731   3.314
 7967SOL     OW35931   3.611   1.963   1.425
 7967SOL    HW135932   3.625   2.038   1.491
 7967SOL    HW235933   3.695   1.910   1.419
 7968SOL     OW35934   7.307   5.624   5.896
 7968SOL    HW135935   7.239   5.619   5.822
 7968SOL    HW235936   7.359   5.540   5.899
 7969SOL     OW35937   0.595   2.070   0.039
 7969SOL    HW135938   0.694   2.066   0.057
 7969SOL    HW235939   0.569   1.993  -0.019
 7970SOL     OW35940   4.426   5.934   4.770
 7970SOL    HW135941   4.371   5.978   4.699
 7970SOL    HW235942   4.513   5.905   4.732
 7971SOL     OW35943   0.869   1.122   3.224
 7971SOL    HW135944   0.892   1.025   3.209
 7971SOL    HW235945   0.932   1.161   3.290
 7972SOL     OW35946   5.247   4.225   2.976
 7972SOL    HW135947   5.148   4.241   2.978
 7972SOL    HW235948   5.288   4.269   3.055
 7973SOL     OW35949   1.689   7.130   0.013
 7973SOL    HW135950   1.662   7.213   0.063
 7973SOL    HW235951   1.661   7.050   0.065
 7974SOL     OW35952   8.869   7.871   7.181
 7974SOL    HW135953   8.900   7.921   7.262
 7974SOL    HW235954   8.769   7.869   7.180
 7975SOL     OW35955   1.218   4.679   7.199
 7975SOL    HW135956   1.168   4.614   7.141
 7975SOL    HW235957   1.252   4.632   7.279
 7976SOL     OW35958   9.136   2.830   0.095
 7976SOL    HW135959   9.063   2.834   0.026
 7976SOL    HW235960   9.219   2.868   0.057
 7977SOL     OW35961   4.228   0.724   7.059
 7977SOL    HW135962   4.294   0.788   7.101
 7977SOL    HW235963   4.263   0.695   6.970
 7978SOL     OW35964   7.182   2.285   7.205
 7978SOL    HW135965   7.212   2.251   7.295
 7978SOL    HW235966   7.091   2.326   7.214
 7979SOL     OW35967   2.242   7.347   0.191
 7979SOL    HW135968   2.316   7.289   0.155
 7979SOL    HW235969   2.259   7.365   0.288
 7980SOL     OW35970   6.553   1.422   5.246
 7980SOL    HW135971   6.553   1.324   5.267
 7980SOL    HW235972   6.635   1.445   5.195
 7981SOL     OW35973   6.340   3.385  -0.016
 7981SOL    HW135974   6.315   3.357   0.077
 7981SOL    HW235975   6.429   3.429  -0.015
 7982SOL     OW35976   5.852   5.696   4.141
 7982SOL    HW135977   5.901   5.693   4.228
 7982SOL    HW235978   5.900   5.640   4.074
 7983SOL     OW35979   0.396   4.558   7.064
 7983SOL    HW135980   0.303   4.584   7.037
 7983SOL    HW235981   0.391   4.483   7.130
 7984SOL     OW35982   5.416   3.676   2.846
 7984SOL    HW135983   5.388   3.630   2.930
 7984SOL    HW235984   5.501   3.635   2.813
 7985SOL     OW35985   4.764   6.837   7.227
 7985SOL    HW135986   4.682   6.828   7.170
 7985SOL    HW235987   4.809   6.923   7.206
 7986SOL     OW35988   7.944   5.677   0.548
 7986SOL    HW135989   7.930   5.585   0.510
 7986SOL    HW235990   7.863   5.732   0.530
 7987SOL     OW35991   2.156   4.427   4.287
 7987SOL    HW135992   2.094   4.506   4.280
 7987SOL    HW235993   2.210   4.434   4.370
 7988SOL     OW35994   6.276   7.529   4.517
 7988SOL    HW135995   6.274   7.492   4.424
 7988SOL    HW235996   6.235   7.620   4.517
 7989SOL     OW35997   8.732   5.231   3.602
 7989SOL    HW135998   8.746   5.139   3.639
 7989SOL    HW235999   8.753   5.232   3.505
 7990SOL     OW36000   3.857   3.973   3.674
 7990SOL    HW136001   3.802   3.891   3.658
 7990SOL    HW236002   3.852   3.998   3.770
 7991SOL     OW36003   8.656   3.668   2.420
 7991SOL    HW136004   8.720   3.730   2.375
 7991SOL    HW236005   8.648   3.692   2.516
 7992SOL     OW36006   3.815   5.874   4.903
 7992SOL    HW136007   3.790   5.777   4.890
 7992SOL    HW236008   3.876   5.902   4.830
 7993SOL     OW36009   2.064   6.945   7.201
 7993SOL    HW136010   2.118   6.919   7.121
 7993SOL    HW236011   2.125   6.983   7.270
 7994SOL     OW36012   9.387   1.590   0.506
 7994SOL    HW136013   9.375   1.491   0.500
 7994SOL    HW236014   9.323   1.635   0.445
 7995SOL     OW36015   1.553   1.910   2.863
 7995SOL    HW136016   1.590   1.889   2.772
 7995SOL    HW236017   1.477   1.973   2.854
 7996SOL     OW36018   8.262   0.941   3.802
 7996SOL    HW136019   8.243   0.892   3.717
 7996SOL    HW236020   8.275   1.038   3.783
 7997SOL     OW36021   1.854   3.864   4.011
 7997SOL    HW136022   1.935   3.876   4.069
 7997SOL    HW236023   1.783   3.926   4.040
 7998SOL     OW36024   7.480   1.723   3.259
 7998SOL    HW136025   7.538   1.641   3.257
 7998SOL    HW236026   7.416   1.717   3.335
 7999SOL     OW36027   6.419   5.509   3.568
 7999SOL    HW136028   6.500   5.511   3.510
 7999SOL    HW236029   6.341   5.476   3.516
 8000SOL     OW36030   2.696   3.382   3.579
 8000SOL    HW136031   2.633   3.441   3.631
 8000SOL    HW236032   2.692   3.290   3.615
 8001SOL     OW36033   8.086   8.075   3.221
 8001SOL    HW136034   8.158   8.080   3.151
 8001SOL    HW236035   8.005   8.032   3.182
 8002SOL     OW36036   8.411   5.844   3.489
 8002SOL    HW136037   8.476   5.919   3.508
 8002SOL    HW236038   8.365   5.862   3.403
 8003SOL     OW36039   8.075   5.106   6.620
 8003SOL    HW136040   8.134   5.187   6.630
 8003SOL    HW236041   8.068   5.061   6.708
 8004SOL     OW36042   0.940   5.339   3.156
 8004SOL    HW136043   0.981   5.325   3.066
 8004SOL    HW236044   0.990   5.285   3.224
 8005SOL     OW36045   6.905   6.351  -0.011
 8005SOL    HW136046   6.829   6.294   0.021
 8005SOL    HW236047   6.967   6.369   0.064
 8006SOL     OW36048   0.562   0.476   4.284
 8006SOL    HW136049   0.512   0.424   4.353
 8006SOL    HW236050   0.654   0.494   4.317
 8007SOL     OW36051   2.052   4.539   3.676
 8007SOL    HW136052   2.085   4.615   3.618
 8007SOL    HW236053   2.001   4.475   3.619
 8008SOL     OW36054   6.344   7.380   3.804
 8008SOL    HW136055   6.271   7.311   3.813
 8008SOL    HW236056   6.432   7.337   3.821
 8009SOL     OW36057   6.838   5.435   4.589
 8009SOL    HW136058   6.912   5.378   4.625
 8009SOL    HW236059   6.788   5.384   4.520
 8010SOL     OW36060   8.002   1.681   3.659
 8010SOL    HW136061   8.061   1.643   3.731
 8010SOL    HW236062   7.978   1.775   3.682
 8011SOL     OW36063   9.055   1.775   0.144
 8011SOL    HW136064   9.015   1.683   0.148
 8011SOL    HW236065   9.097   1.796   0.231
 8012SOL     OW36066   0.205   3.082   3.066
 8012SOL    HW136067   0.139   3.009   3.087
 8012SOL    HW236068   0.179   3.126   2.981
 8013SOL     OW36069   8.827   5.740   0.383
 8013SOL    HW136070   8.756   5.749   0.455
 8013SOL    HW236071   8.909   5.701   0.423
 8014SOL     OW36072   3.467   4.470   0.780
 8014SOL    HW136073   3.476   4.518   0.692
 8014SOL    HW236074   3.489   4.374   0.768
 8015SOL     OW36075   8.380   6.401   3.669
 8015SOL    HW136076   8.441   6.363   3.739
 8015SOL    HW236077   8.293   6.352   3.671
 8016SOL     OW36078   6.908   0.668   3.768
 8016SOL    HW136079   6.928   0.760   3.803
 8016SOL    HW236080   6.900   0.605   3.845
 8017SOL     OW36081   7.658   0.385   6.348
 8017SOL    HW136082   7.744   0.437   6.358
 8017SOL    HW236083   7.646   0.360   6.253
 8018SOL     OW36084   7.105   7.885   3.272
 8018SOL    HW136085   7.029   7.900   3.209
 8018SOL    HW236086   7.071   7.880   3.365
 8019SOL     OW36087   6.291   6.975   4.674
 8019SOL    HW136088   6.360   7.013   4.611
 8019SOL    HW236089   6.234   6.910   4.625
 8020SOL     OW36090   7.355   4.239   0.086
 8020SOL    HW136091   7.422   4.241   0.011
 8020SOL    HW236092   7.266   4.215   0.049
 8021SOL     OW36093   3.208   6.587   2.775
 8021SOL    HW136094   3.173   6.494   2.789
 8021SOL    HW236095   3.249   6.620   2.860
 8022SOL     OW36096   4.528   5.158   7.127
 8022SOL    HW136097   4.537   5.066   7.089
 8022SOL    HW236098   4.585   5.166   7.209
 8023SOL     OW36099   4.307   2.768   7.147
 8023SOL    HW136100   4.216   2.796   7.181
 8023SOL    HW236101   4.308   2.669   7.133
 8024SOL     OW36102   8.647   7.088   0.129
 8024SOL    HW136103   8.612   7.138   0.049
 8024SOL    HW236104   8.738   7.054   0.109
 8025SOL     OW36105   4.633   2.340   4.203
 8025SOL    HW136106   4.564   2.374   4.138
 8025SOL    HW236107   4.713   2.310   4.152
 8026SOL     OW36108   8.972   6.539   2.403
 8026SOL    HW136109   9.045   6.481   2.365
 8026SOL    HW236110   8.895   6.483   2.429
 8027SOL     OW36111   4.589   6.539   1.921
 8027SOL    HW136112   4.590   6.535   1.821
 8027SOL    HW236113   4.634   6.622   1.951
 8028SOL     OW36114   1.874   8.188   4.192
 8028SOL    HW136115   1.910   8.214   4.103
 8028SOL    HW236116   1.793   8.130   4.180
 8029SOL     OW36117   1.708   1.188   3.351
 8029SOL    HW136118   1.639   1.261   3.362
 8029SOL    HW236119   1.664   1.105   3.319
 8030SOL     OW36120   0.364   4.879   2.942
 8030SOL    HW136121   0.303   4.799   2.941
 8030SOL    HW236122   0.311   4.960   2.962
 8031SOL     OW36123   3.075   4.356   2.719
 8031SOL    HW136124   3.168   4.342   2.756
 8031SOL    HW236125   3.077   4.434   2.657
 8032SOL     OW36126   5.430   8.002   6.985
 8032SOL    HW136127   5.515   8.003   7.038
 8032SOL    HW236128   5.352   8.014   7.046
 8033SOL     OW36129   0.312   2.962   3.551
 8033SOL    HW136130   0.400   2.998   3.519
 8033SOL    HW236131   0.301   2.985   3.647
 8034SOL     OW36132   4.324   6.023   0.359
 8034SOL    HW136133   4.227   6.016   0.385
 8034SOL    HW236134   4.333   6.085   0.282
 8035SOL     OW36135   7.529   5.123   2.689
 8035SOL    HW136136   7.466   5.132   2.611
 8035SOL    HW236137   7.546   5.213   2.728
 8036SOL     OW36138   0.858   4.279   2.735
 8036SOL    HW136139   0.882   4.353   2.671
 8036SOL    HW236140   0.850   4.193   2.686
 8037SOL     OW36141   0.230   4.823   7.237
 8037SOL    HW136142   0.270   4.768   7.162
 8037SOL    HW236143   0.268   4.915   7.235
 8038SOL     OW36144   5.261   7.550   3.344
 8038SOL    HW136145   5.258   7.629   3.406
 8038SOL    HW236146   5.222   7.471   3.390
 8039SOL     OW36147   1.764   2.613   7.157
 8039SOL    HW136148   1.825   2.610   7.237
 8039SOL    HW236149   1.685   2.670   7.179
 8040SOL     OW36150   6.091   1.737   7.161
 8040SOL    HW136151   6.033   1.701   7.234
 8040SOL    HW236152   6.185   1.744   7.194
 8041SOL     OW36153   0.015   0.179   6.233
 8041SOL    HW136154   0.105   0.137   6.248
 8041SOL    HW236155  -0.029   0.135   6.156
 8042SOL     OW36156   2.159   2.258   3.941
 8042SOL    HW136157   2.254   2.275   3.972
 8042SOL    HW236158   2.101   2.331   3.976
 8043SOL     OW36159   5.019   0.886   3.841
 8043SOL    HW136160   5.098   0.834   3.874
 8043SOL    HW236161   5.035   0.983   3.856
 8044SOL     OW36162   3.529   0.825   7.180
 8044SOL    HW136163   3.436   0.792   7.164
 8044SOL    HW236164   3.565   0.865   7.096
 8045SOL     OW36165   8.396   0.502   3.325
 8045SOL    HW136166   8.346   0.451   3.396
 8045SOL    HW236167   8.488   0.521   3.358
 8046SOL     OW36168   3.952   2.946   2.935
 8046SOL    HW136169   4.007   2.983   2.859
 8046SOL    HW236170   3.995   2.862   2.968
 8047SOL     OW36171   7.278   3.723   4.414
 8047SOL    HW136172   7.333   3.779   4.477
 8047SOL    HW236173   7.196   3.691   4.461
 8048SOL     OW36174   0.955   0.906   3.868
 8048SOL    HW136175   1.011   0.831   3.906
 8048SOL    HW236176   0.948   0.978   3.936
 8049SOL     OW36177   1.736   5.564   3.421
 8049SOL    HW136178   1.723   5.643   3.359
 8049SOL    HW236179   1.698   5.483   3.379
 8050SOL     OW36180   1.514   5.350   2.608
 8050SOL    HW136181   1.486   5.338   2.512
 8050SOL    HW236182   1.462   5.425   2.647
 8051SOL     OW36183   0.569   5.656   3.658
 8051SOL    HW136184   0.507   5.645   3.736
 8051SOL    HW236185   0.630   5.733   3.676
 8052SOL     OW36186   1.768   3.109   0.042
 8052SOL    HW136187   1.838   3.097   0.113
 8052SOL    HW236188   1.697   3.040   0.054
 8053SOL     OW36189   6.169   3.808   3.132
 8053SOL    HW136190   6.265   3.836   3.128
 8053SOL    HW236191   6.161   3.714   3.101
 8054SOL     OW36192   5.704   1.769   4.104
 8054SOL    HW136193   5.703   1.683   4.052
 8054SOL    HW236194   5.611   1.792   4.131
 8055SOL     OW36195   5.870   4.994   3.160
 8055SOL    HW136196   5.886   4.930   3.236
 8055SOL    HW236197   5.885   5.087   3.191
 8056SOL     OW36198   3.376   5.285   3.236
 8056SOL    HW136199   3.417   5.194   3.237
 8056SOL    HW236200   3.322   5.297   3.153
 8057SOL     OW36201   7.070   7.125   2.675
 8057SOL    HW136202   7.083   7.058   2.601
 8057SOL    HW236203   7.006   7.195   2.645
 8058SOL     OW36204   7.884   7.470   7.131
 8058SOL    HW136205   7.786   7.490   7.138
 8058SOL    HW236206   7.897   7.373   7.115
 8059SOL     OW36207   8.477   5.464   7.229
 8059SOL    HW136208   8.521   5.495   7.144
 8059SOL    HW236209   8.460   5.543   7.287
 8060SOL     OW36210   1.870   4.423   5.480
 8060SOL    HW136211   1.803   4.423   5.406
 8060SOL    HW236212   1.952   4.472   5.452
 8061SOL     OW36213   7.182   4.883   6.656
 8061SOL    HW136214   7.094   4.919   6.688
 8061SOL    HW236215   7.256   4.937   6.696
 8062SOL     OW36216   8.973   4.069   7.029
 8062SOL    HW136217   8.958   4.073   7.128
 8062SOL    HW236218   9.070   4.061   7.010
 8063SOL     OW36219   5.490   0.314   4.088
 8063SOL    HW136220   5.504   0.249   4.014
 8063SOL    HW236221   5.403   0.360   4.076
 8064SOL     OW36222   0.767   3.556   2.828
 8064SOL    HW136223   0.807   3.472   2.867
 8064SOL    HW236224   0.715   3.532   2.747
 8065SOL     OW36225   0.883   5.156   4.294
 8065SOL    HW136226   0.881   5.254   4.314
 8065SOL    HW236227   0.944   5.139   4.217
 8066SOL     OW36228   3.505   4.499   3.984
 8066SOL    HW136229   3.492   4.466   3.890
 8066SOL    HW236230   3.426   4.552   4.011
 8067SOL     OW36231   7.618   5.234   2.171
 8067SOL    HW136232   7.545   5.194   2.228
 8067SOL    HW236233   7.684   5.280   2.230
 8068SOL     OW36234   1.535   1.532   5.717
 8068SOL    HW136235   1.534   1.456   5.652
 8068SOL    HW236236   1.493   1.612   5.675
 8069SOL     OW36237   2.389   6.478   3.795
 8069SOL    HW136238   2.378   6.533   3.711
 8069SOL    HW236239   2.307   6.423   3.808
 8070SOL     OW36240   2.747   3.698   4.181
 8070SOL    HW136241   2.701   3.766   4.123
 8070SOL    HW236242   2.844   3.697   4.161
 8071SOL     OW36243   0.375   5.705   3.256
 8071SOL    HW136244   0.411   5.639   3.323
 8071SOL    HW236245   0.366   5.794   3.298
 8072SOL     OW36246   3.276   8.069   2.381
 8072SOL    HW136247   3.203   8.056   2.449
 8072SOL    HW236248   3.360   8.029   2.416
 8073SOL     OW36249   1.479   0.009   4.778
 8073SOL    HW136250   1.531  -0.064   4.823
 8073SOL    HW236251   1.529   0.095   4.787
 8074SOL     OW36252   6.554   1.422   3.551
 8074SOL    HW136253   6.559   1.442   3.453
 8074SOL    HW236254   6.478   1.473   3.591
 8075SOL     OW36255   2.349   0.235   3.037
 8075SOL    HW136256   2.307   0.233   3.128
 8075SOL    HW236257   2.437   0.189   3.041
 8076SOL     OW36258   6.241   7.830   3.246
 8076SOL    HW136259   6.246   7.930   3.244
 8076SOL    HW236260   6.329   7.792   3.221
 8077SOL     OW36261   8.079   7.460   3.955
 8077SOL    HW136262   8.025   7.375   3.951
 8077SOL    HW236263   8.099   7.481   4.050
 8078SOL     OW36264   6.267   3.279   4.278
 8078SOL    HW136265   6.338   3.261   4.210
 8078SOL    HW236266   6.308   3.310   4.363
 8079SOL     OW36267   0.685   8.261   2.222
 8079SOL    HW136268   0.732   8.176   2.197
 8079SOL    HW236269   0.737   8.308   2.292
 8080SOL     OW36270   3.157   5.139   4.364
 8080SOL    HW136271   3.068   5.163   4.404
 8080SOL    HW236272   3.229   5.156   4.430
 8081SOL     OW36273   8.966   7.990   2.425
 8081SOL    HW136274   8.888   7.954   2.477
 8081SOL    HW236275   8.963   8.090   2.429
 8082SOL     OW36276   2.796   7.778   0.081
 8082SOL    HW136277   2.850   7.829   0.013
 8082SOL    HW236278   2.857   7.720   0.135
 8083SOL     OW36279   8.756   1.749   7.209
 8083SOL    HW136280   8.699   1.791   7.281
 8083SOL    HW236281   8.781   1.657   7.236
 8084SOL     OW36282   4.485   5.336   4.956
 8084SOL    HW136283   4.491   5.356   4.857
 8084SOL    HW236284   4.390   5.322   4.981
 8085SOL     OW36285   1.514   2.839   6.949
 8085SOL    HW136286   1.554   2.830   7.041
 8085SOL    HW236287   1.453   2.762   6.933
 8086SOL     OW36288   2.700   7.893   2.574
 8086SOL    HW136289   2.644   7.926   2.651
 8086SOL    HW236290   2.769   7.830   2.608
 8087SOL     OW36291   2.613   8.147   2.793
 8087SOL    HW136292   2.550   8.110   2.863
 8087SOL    HW236293   2.706   8.136   2.824
 8088SOL     OW36294   2.103   6.142   3.051
 8088SOL    HW136295   2.139   6.198   2.975
 8088SOL    HW236296   2.174   6.082   3.084
 8089SOL     OW36297   2.692   3.993   3.215
 8089SOL    HW136298   2.633   3.918   3.182
 8089SOL    HW236299   2.674   4.075   3.162
 8090SOL     OW36300   2.895   5.888   2.260
 8090SOL    HW136301   2.923   5.927   2.171
 8090SOL    HW236302   2.976   5.859   2.309
 8091SOL     OW36303   3.530   2.870   3.266
 8091SOL    HW136304   3.438   2.837   3.288
 8091SOL    HW236305   3.546   2.862   3.169
 8092SOL     OW36306   3.741   7.139   3.584
 8092SOL    HW136307   3.817   7.080   3.612
 8092SOL    HW236308   3.762   7.182   3.497
 8093SOL     OW36309   3.993   7.668   3.694
 8093SOL    HW136310   4.062   7.736   3.666
 8093SOL    HW236311   4.006   7.584   3.643
 8094SOL     OW36312   5.938   7.344   4.266
 8094SOL    HW136313   5.978   7.404   4.336
 8094SOL    HW236314   6.011   7.298   4.217
 8095SOL     OW36315   3.045   5.477   4.281
 8095SOL    HW136316   3.045   5.485   4.381
 8095SOL    HW236317   2.969   5.528   4.243
 8096SOL     OW36318   8.860   7.082   3.968
 8096SOL    HW136319   8.911   7.158   3.928
 8096SOL    HW236320   8.872   7.001   3.911
 8097SOL     OW36321   9.196   1.365   6.990
 8097SOL    HW136322   9.284   1.388   7.034
 8097SOL    HW236323   9.204   1.378   6.892
 8098SOL     OW36324   2.533   2.218   0.035
 8098SOL    HW136325   2.591   2.140   0.010
 8098SOL    HW236326   2.492   2.201   0.124
 8099SOL     OW36327   4.054   4.997   0.359
 8099SOL    HW136328   4.134   5.010   0.299
 8099SOL    HW236329   3.979   4.959   0.306
 8100SOL     OW36330   7.988   4.772   3.319
 8100SOL    HW136331   8.087   4.755   3.321
 8100SOL    HW236332   7.951   4.742   3.232
 8101SOL     OW36333   9.392   4.692   3.288
 8101SOL    HW136334   9.296   4.716   3.303
 8101SOL    HW236335   9.443   4.706   3.373
 8102SOL     OW36336   4.453   3.479   3.226
 8102SOL    HW136337   4.405   3.396   3.197
 8102SOL    HW236338   4.498   3.520   3.147
 8103SOL     OW36339   6.594   7.973   3.731
 8103SOL    HW136340   6.555   7.924   3.809
 8103SOL    HW236341   6.626   8.062   3.761
 8104SOL     OW36342   0.490   6.120   0.169
 8104SOL    HW136343   0.491   6.091   0.072
 8104SOL    HW236344   0.580   6.154   0.193
 8105SOL     OW36345   4.463   5.246   3.368
 8105SOL    HW136346   4.535   5.261   3.435
 8105SOL    HW236347   4.449   5.330   3.316
 8106SOL     OW36348   3.235   1.160   0.718
 8106SOL    HW136349   3.317   1.134   0.770
 8106SOL    HW236350   3.155   1.121   0.761
 8107SOL     OW36351   6.650   1.584   4.929
 8107SOL    HW136352   6.749   1.598   4.940
 8107SOL    HW236353   6.628   1.489   4.944
 8108SOL     OW36354   4.847   2.482   4.809
 8108SOL    HW136355   4.857   2.564   4.866
 8108SOL    HW236356   4.774   2.425   4.845
 8109SOL     OW36357   4.506   0.390   2.788
 8109SOL    HW136358   4.562   0.473   2.781
 8109SOL    HW236359   4.565   0.310   2.789
 8110SOL     OW36360   3.375   2.587   3.312
 8110SOL    HW136361   3.423   2.627   3.233
 8110SOL    HW236362   3.357   2.491   3.294
 8111SOL     OW36363   9.351   4.419   4.594
 8111SOL    HW136364   9.413   4.402   4.517
 8111SOL    HW236365   9.403   4.425   4.679
 8112SOL     OW36366   6.621   4.179   3.625
 8112SOL    HW136367   6.689   4.107   3.610
 8112SOL    HW236368   6.605   4.227   3.539
 8113SOL     OW36369   9.080   3.458   2.770
 8113SOL    HW136370   9.104   3.369   2.810
 8113SOL    HW236371   9.090   3.529   2.840
 8114SOL     OW36372   2.327   3.074   4.698
 8114SOL    HW136373   2.420   3.043   4.720
 8114SOL    HW236374   2.320   3.171   4.715
 8115SOL     OW36375   3.933   5.982   2.761
 8115SOL    HW136376   3.958   6.079   2.772
 8115SOL    HW236377   3.834   5.974   2.760
 8116SOL     OW36378   6.009   3.972   7.174
 8116SOL    HW136379   6.042   3.926   7.092
 8116SOL    HW236380   6.069   4.049   7.194
 8117SOL     OW36381   7.021   8.378   0.406
 8117SOL    HW136382   6.959   8.339   0.476
 8117SOL    HW236383   7.102   8.320   0.399
 8118SOL     OW36384   1.331   5.335   3.091
 8118SOL    HW136385   1.377   5.293   3.012
 8118SOL    HW236386   1.261   5.397   3.059
 8119SOL     OW36387   7.919   5.259   3.205
 8119SOL    HW136388   7.874   5.349   3.199
 8119SOL    HW236389   7.850   5.189   3.220
 8120SOL     OW36390   7.296   6.569   3.742
 8120SOL    HW136391   7.309   6.509   3.821
 8120SOL    HW236392   7.362   6.545   3.671
 8121SOL     OW36393   0.652   6.360   7.053
 8121SOL    HW136394   0.621   6.270   7.085
 8121SOL    HW236395   0.720   6.395   7.116
 8122SOL     OW36396   1.185   8.340   0.393
 8122SOL    HW136397   1.104   8.371   0.343
 8122SOL    HW236398   1.267   8.374   0.348
 8123SOL     OW36399   3.931   3.223   2.738
 8123SOL    HW136400   3.983   3.170   2.670
 8123SOL    HW236401   3.834   3.207   2.725
 8124SOL     OW36402   6.388   7.085   0.090
 8124SOL    HW136403   6.428   7.030   0.015
 8124SOL    HW236404   6.454   7.151   0.122
 8125SOL     OW36405   2.722   5.938   2.966
 8125SOL    HW136406   2.771   6.021   2.996
 8125SOL    HW236407   2.760   5.907   2.880
 8126SOL     OW36408   9.034   3.969   5.851
 8126SOL    HW136409   8.982   3.937   5.772
 8126SOL    HW236410   8.971   4.002   5.921
 8127SOL     OW36411   7.374   1.982   3.363
 8127SOL    HW136412   7.355   2.080   3.352
 8127SOL    HW236413   7.320   1.930   3.298
 8128SOL     OW36414   0.292   3.139   2.487
 8128SOL    HW136415   0.322   3.044   2.501
 8128SOL    HW236416   0.319   3.195   2.565
 8129SOL     OW36417   5.454   1.743   2.663
 8129SOL    HW136418   5.499   1.819   2.711
 8129SOL    HW236419   5.415   1.776   2.578
 8130SOL     OW36420   5.672   3.862   3.837
 8130SOL    HW136421   5.751   3.890   3.782
 8130SOL    HW236422   5.616   3.798   3.785
 8131SOL     OW36423   4.300   3.029   4.123
 8131SOL    HW136424   4.301   2.977   4.209
 8131SOL    HW236425   4.358   2.983   4.056
 8132SOL     OW36426   6.986   2.992   7.124
 8132SOL    HW136427   6.998   2.907   7.071
 8132SOL    HW236428   6.912   3.045   7.084
 8133SOL     OW36429   4.897   6.740   3.850
 8133SOL    HW136430   4.914   6.706   3.756
 8133SOL    HW236431   4.809   6.785   3.853
 8134SOL     OW36432   4.444   3.257   3.791
 8134SOL    HW136433   4.529   3.303   3.818
 8134SOL    HW236434   4.400   3.219   3.872
 8135SOL     OW36435   9.447   4.069   3.139
 8135SOL    HW136436   9.414   4.151   3.092
 8135SOL    HW236437   9.521   4.095   3.201
 8136SOL     OW36438   0.604   8.138   3.447
 8136SOL    HW136439   0.543   8.099   3.377
 8136SOL    HW236440   0.628   8.231   3.422
 8137SOL     OW36441   4.469   3.618   6.967
 8137SOL    HW136442   4.400   3.632   7.038
 8137SOL    HW236443   4.540   3.557   7.001
 8138SOL     OW36444   2.467   8.225   0.040
 8138SOL    HW136445   2.375   8.264   0.036
 8138SOL    HW236446   2.467   8.146   0.101
 8139SOL     OW36447   7.607   4.233   3.795
 8139SOL    HW136448   7.642   4.255   3.887
 8139SOL    HW236449   7.508   4.223   3.799
 8140SOL     OW36450   7.339   0.263   4.519
 8140SOL    HW136451   7.336   0.279   4.419
 8140SOL    HW236452   7.390   0.336   4.562
 8141SOL     OW36453   9.403   2.146   3.332
 8141SOL    HW136454   9.359   2.096   3.407
 8141SOL    HW236455   9.333   2.185   3.274
 8142SOL     OW36456   2.725   3.999   0.145
 8142SOL    HW136457   2.745   4.058   0.224
 8142SOL    HW236458   2.735   3.904   0.173
 8143SOL     OW36459   6.201   5.800   0.199
 8143SOL    HW136460   6.270   5.737   0.237
 8143SOL    HW236461   6.147   5.838   0.273
 8144SOL     OW36462   9.295   5.139   7.204
 8144SOL    HW136463   9.243   5.093   7.277
 8144SOL    HW236464   9.317   5.073   7.133
 8145SOL     OW36465   3.530   5.955   3.474
 8145SOL    HW136466   3.474   5.949   3.390
 8145SOL    HW236467   3.594   5.879   3.476
 8146SOL     OW36468   9.495   1.592   2.724
 8146SOL    HW136469   9.417   1.534   2.750
 8146SOL    HW236470   9.478   1.633   2.636
 8147SOL     OW36471   0.191   2.139   4.343
 8147SOL    HW136472   0.226   2.086   4.420
 8147SOL    HW236473   0.267   2.182   4.295
 8148SOL     OW36474   0.968   4.073  -0.009
 8148SOL    HW136475   1.034   4.043   0.060
 8148SOL    HW236476   0.911   4.145   0.029
 8149SOL     OW36477   2.424   4.603   6.476
 8149SOL    HW136478   2.448   4.540   6.550
 8149SOL    HW236479   2.347   4.659   6.504
 8150SOL     OW36480   0.570   2.556   2.606
 8150SOL    HW136481   0.633   2.607   2.546
 8150SOL    HW236482   0.483   2.545   2.560
 8151SOL     OW36483   9.152   3.155   0.286
 8151SOL    HW136484   9.074   3.107   0.245
 8151SOL    HW236485   9.216   3.089   0.323
 8152SOL     OW36486   6.490   4.133   2.585
 8152SOL    HW136487   6.421   4.197   2.549
 8152SOL    HW236488   6.453   4.088   2.666
 8153SOL     OW36489   8.050   8.351   7.026
 8153SOL    HW136490   7.950   8.356   7.029
 8153SOL    HW236491   8.078   8.270   6.976
 8154SOL     OW36492   0.956   1.841   0.096
 8154SOL    HW136493   0.905   1.817   0.179
 8154SOL    HW236494   1.044   1.880   0.121
 8155SOL     OW36495   8.118   6.205   2.806
 8155SOL    HW136496   8.103   6.277   2.874
 8155SOL    HW236497   8.087   6.118   2.843
 8156SOL     OW36498   7.537   2.689   0.039
 8156SOL    HW136499   7.563   2.612   0.097
 8156SOL    HW236500   7.569   2.774   0.079
 8157SOL     OW36501   3.835   7.883   3.524
 8157SOL    HW136502   3.924   7.924   3.501
 8157SOL    HW236503   3.782   7.948   3.577
 8158SOL     OW36504   4.817   1.335   4.470
 8158SOL    HW136505   4.743   1.276   4.505
 8158SOL    HW236506   4.797   1.361   4.376
 8159SOL     OW36507   0.216   7.184   2.159
 8159SOL    HW136508   0.269   7.265   2.133
 8159SOL    HW236509   0.177   7.198   2.249
 8160SOL     OW36510   8.029   5.854   2.619
 8160SOL    HW136511   7.931   5.842   2.606
 8160SOL    HW236512   8.050   5.862   2.716
 8161SOL     OW36513   8.165   1.547   3.220
 8161SOL    HW136514   8.098   1.569   3.149
 8161SOL    HW236515   8.222   1.626   3.238
 8162SOL     OW36516   5.575   6.726   6.282
 8162SOL    HW136517   5.593   6.822   6.255
 8162SOL    HW236518   5.499   6.691   6.229
 8163SOL     OW36519   2.166   8.249   3.955
 8163SOL    HW136520   2.128   8.248   4.048
 8163SOL    HW236521   2.160   8.340   3.917
 8164SOL     OW36522   0.840   3.383   3.557
 8164SOL    HW136523   0.770   3.398   3.628
 8164SOL    HW236524   0.888   3.298   3.575
 8165SOL     OW36525   0.524   6.982   3.636
 8165SOL    HW136526   0.477   7.069   3.655
 8165SOL    HW236527   0.457   6.911   3.618
 8166SOL     OW36528   0.893   8.227   2.707
 8166SOL    HW136529   0.879   8.131   2.735
 8166SOL    HW236530   0.814   8.281   2.734
 8167SOL     OW36531   2.443   2.529   4.151
 8167SOL    HW136532   2.396   2.602   4.200
 8167SOL    HW236533   2.403   2.441   4.177
 8168SOL     OW36534   3.569   5.343   3.634
 8168SOL    HW136535   3.660   5.345   3.591
 8168SOL    HW236536   3.519   5.425   3.609
 8169SOL     OW36537   5.283   0.091   6.902
 8169SOL    HW136538   5.336   0.034   6.966
 8169SOL    HW236539   5.189   0.098   6.935
 8170SOL     OW36540   4.663   6.841   4.075
 8170SOL    HW136541   4.689   6.914   4.139
 8170SOL    HW236542   4.564   6.837   4.068
 8171SOL     OW36543   2.042   7.097   3.567
 8171SOL    HW136544   2.007   7.015   3.613
 8171SOL    HW236545   2.132   7.078   3.530
 8172SOL     OW36546   3.633   1.184   4.429
 8172SOL    HW136547   3.645   1.127   4.511
 8172SOL    HW236548   3.646   1.129   4.348
 8173SOL     OW36549   7.322   2.282   2.723
 8173SOL    HW136550   7.393   2.237   2.778
 8173SOL    HW236551   7.314   2.377   2.750
 8174SOL     OW36552   5.686   2.663   4.216
 8174SOL    HW136553   5.746   2.586   4.243
 8174SOL    HW236554   5.734   2.749   4.232
 8175SOL     OW36555   3.748   6.700   7.271
 8175SOL    HW136556   3.683   6.729   7.200
 8175SOL    HW236557   3.830   6.663   7.227
 8176SOL     OW36558   0.887   1.590   6.956
 8176SOL    HW136559   0.874   1.586   6.856
 8176SOL    HW236560   0.961   1.653   6.977
 8177SOL     OW36561   5.409   3.049   3.853
 8177SOL    HW136562   5.370   3.113   3.786
 8177SOL    HW236563   5.508   3.059   3.855
 8178SOL     OW36564   9.232   5.122   3.763
 8178SOL    HW136565   9.162   5.186   3.796
 8178SOL    HW236566   9.322   5.154   3.791
 8179SOL     OW36567   8.111   3.490   0.123
 8179SOL    HW136568   8.128   3.587   0.103
 8179SOL    HW236569   8.104   3.440   0.037
 8180SOL     OW36570   1.926   2.841   0.271
 8180SOL    HW136571   1.920   2.901   0.191
 8180SOL    HW236572   1.842   2.847   0.324
 8181SOL     OW36573   8.762   5.788   3.549
 8181SOL    HW136574   8.766   5.694   3.583
 8181SOL    HW236575   8.694   5.839   3.599
 8182SOL     OW36576   9.104   7.125   0.948
 8182SOL    HW136577   9.040   7.161   0.880
 8182SOL    HW236578   9.195   7.118   0.907
 8183SOL     OW36579   1.044   0.003   3.542
 8183SOL    HW136580   1.014   0.098   3.552
 8183SOL    HW236581   1.120  -0.014   3.604
 8184SOL     OW36582   1.838   4.094   3.540
 8184SOL    HW136583   1.795   4.160   3.602
 8184SOL    HW236584   1.873   4.143   3.460
 8185SOL     OW36585   3.320   1.915   4.092
 8185SOL    HW136586   3.353   1.894   4.000
 8185SOL    HW236587   3.396   1.949   4.147
 8186SOL     OW36588   0.071   0.313   3.343
 8186SOL    HW136589  -0.008   0.349   3.394
 8186SOL    HW236590   0.116   0.243   3.398
 8187SOL     OW36591   7.745   0.238   7.206
 8187SOL    HW136592   7.836   0.272   7.230
 8187SOL    HW236593   7.717   0.277   7.119
 8188SOL     OW36594   2.047   4.097   2.797
 8188SOL    HW136595   2.004   4.100   2.707
 8188SOL    HW236596   2.145   4.108   2.787
 8189SOL     OW36597   9.375   4.843   1.951
 8189SOL    HW136598   9.349   4.757   1.906
 8189SOL    HW236599   9.313   4.915   1.922
 8190SOL     OW36600   8.382   8.383   3.546
 8190SOL    HW136601   8.446   8.376   3.624
 8190SOL    HW236602   8.294   8.414   3.578
 8191SOL     OW36603   1.568   7.326   1.026
 8191SOL    HW136604   1.532   7.399   0.967
 8191SOL    HW236605   1.666   7.336   1.036
 8192SOL     OW36606   8.718   3.933   3.608
 8192SOL    HW136607   8.619   3.944   3.604
 8192SOL    HW236608   8.741   3.873   3.684
 8193SOL     OW36609   3.151   1.020   4.145
 8193SOL    HW136610   3.111   1.072   4.069
 8193SOL    HW236611   3.250   1.021   4.138
 8194SOL     OW36612   7.005   1.307   4.101
 8194SOL    HW136613   6.972   1.402   4.091
 8194SOL    HW236614   7.038   1.294   4.194
 8195SOL     OW36615   8.242   6.377   7.055
 8195SOL    HW136616   8.312   6.308   7.036
 8195SOL    HW236617   8.237   6.442   6.980
 8196SOL     OW36618   4.131   1.752   7.209
 8196SOL    HW136619   4.188   1.684   7.161
 8196SOL    HW236620   4.093   1.711   7.291
 8197SOL     OW36621   0.293   1.740   0.162
 8197SOL    HW136622   0.344   1.685   0.229
 8197SOL    HW236623   0.342   1.741   0.076
 8198SOL     OW36624   0.030   7.975   3.460
 8198SOL    HW136625   0.057   7.923   3.379
 8198SOL    HW236626  -0.049   7.933   3.502
 8199SOL     OW36627   3.421   6.389   4.233
 8199SOL    HW136628   3.344   6.421   4.177
 8199SOL    HW236629   3.404   6.414   4.328
 8200SOL     OW36630   6.101   0.797   4.336
 8200SOL    HW136631   6.181   0.805   4.276
 8200SOL    HW236632   6.030   0.744   4.290
 8201X2IT   H1836633   0.144   1.830   6.952
 8201X2IT    N436634   0.107   1.818   6.859
 8201X2IT   H1736635   0.011   1.847   6.844
 8201X2IT   C1436636   0.196   1.827   6.756
 8201X2IT    O536637   0.318   1.821   6.767
 8201X2IT    O436638   0.130   1.841   6.638
 8201X2IT   C1336639   0.211   1.845   6.519
 8201X2IT   C1036640   0.249   1.704   6.471
 8201X2IT    C936641   0.328   1.704   6.342
 8201X2IT    C436642   0.263   1.630   6.245
 8201X2IT    C536643   0.314   1.611   6.106
 8201X2IT    O136644   0.251   1.540   6.026
 8201X2IT    C636645   0.438   1.677   6.073
 8201X2IT   C1236646   0.496   1.662   5.934
 8201X2IT    C736647   0.505   1.749   6.171
 8201X2IT    C836648   0.451   1.768   6.313
 8201X2IT    O236649   0.517   1.839   6.391
 8201X2IT    N336650   0.621   1.812   6.150
 8201X2IT   H1536651   0.669   1.812   6.062
 8201X2IT   H1636652   0.660   1.865   6.229
 8201X2IT    N236653   0.150   1.571   6.293
 8201X2IT    C336654   0.025   1.544   6.222
 8201X2IT    C236655  -0.077   1.623   6.303
 8201X2IT    H236656  -0.183   1.598   6.297
 8201X2IT    N136657  -0.036   1.764   6.322
 8201X2IT   H1436658  -0.118   1.821   6.345
 8201X2IT    C136659  -0.015   1.666   6.431
 8201X2IT    H136660  -0.070   1.674   6.524
 8201X2IT   C1136661   0.127   1.610   6.435
 8201X2IT    O336662   0.117   1.498   6.520
 8201X2IT   C1536663   0.223   1.402   6.514
 8202X2IT   H1836664   2.633   0.296   6.541
 8202X2IT    N436665   2.705   0.239   6.584
 8202X2IT   H1736666   2.783   0.212   6.526
 8202X2IT   C1436667   2.725   0.257   6.718
 8202X2IT    O536668   2.648   0.314   6.794
 8202X2IT    O436669   2.842   0.199   6.755
 8202X2IT   C1336670   2.874   0.204   6.896
 8202X2IT   C1036671   2.804   0.091   6.974
 8202X2IT    C936672   2.840   0.089   7.121
 8202X2IT    C436673   2.894  -0.033   7.155
 8202X2IT    C536674   2.942  -0.068   7.293
 8202X2IT    O136675   2.986  -0.182   7.315
 8202X2IT    C636676   2.931   0.035   7.393
 8202X2IT   C1236677   2.977   0.007   7.534
 8202X2IT    C736678   2.875   0.157   7.359
 8202X2IT    C836679   2.827   0.192   7.218
 8202X2IT    O236680   2.782   0.306   7.198
 8202X2IT    N336681   2.859   0.259   7.446
 8202X2IT   H1536682   2.888   0.254   7.542
 8202X2IT   H1636683   2.818   0.345   7.409
 8202X2IT    N236684   2.893  -0.120   7.051
 8202X2IT    C336685   2.991  -0.226   7.020
 8202X2IT    C236686   3.040  -0.184   6.882
 8202X2IT    H236687   3.088  -0.258   6.817
 8202X2IT    N136688   3.085  -0.043   6.878
 8202X2IT   H1436689   3.148  -0.030   6.799
 8202X2IT    C136690   2.951  -0.079   6.827
 8202X2IT    H136691   2.928  -0.070   6.722
 8202X2IT   C1136692   2.840  -0.055   6.928
 8202X2IT    O336693   2.729  -0.125   6.874
 8202X2IT   C1536694   2.621  -0.154   6.963
 8203X2IT   H1836695   4.447   5.786   0.801
 8203X2IT    N436696   4.471   5.868   0.747
 8203X2IT   H1736697   4.398   5.907   0.689
 8203X2IT   C1436698   4.566   5.950   0.801
 8203X2IT    O536699   4.642   5.920   0.891
 8203X2IT    O436700   4.566   6.070   0.735
 8203X2IT   C1336701   4.666   6.165   0.776
 8203X2IT   C1036702   4.801   6.138   0.708
 8203X2IT    C936703   4.907   6.240   0.744
 8203X2IT    C436704   4.955   6.301   0.629
 8203X2IT    C536705   5.061   6.408   0.629
 8203X2IT    O136706   5.100   6.454   0.521
 8203X2IT    C636707   5.111   6.449   0.758
 8203X2IT   C1236708   5.217   6.557   0.765
 8203X2IT    C736709   5.064   6.387   0.872
 8203X2IT    C836710   4.957   6.278   0.871
 8203X2IT    O236711   4.919   6.232   0.980
 8203X2IT    N336712   5.106   6.417   0.996
 8203X2IT   H1536713   5.174   6.488   1.015
 8203X2IT   H1636714   5.063   6.366   1.074
 8203X2IT    N236715   4.901   6.248   0.517
 8203X2IT    C336716   4.870   6.316   0.390
 8203X2IT    C236717   4.720   6.294   0.377
 8203X2IT    H236718   4.672   6.304   0.280
 8203X2IT    N136719   4.647   6.336   0.499
 8203X2IT   H1436720   4.549   6.353   0.476
 8203X2IT    C136721   4.676   6.193   0.476
 8203X2IT    H136722   4.597   6.122   0.457
 8203X2IT   C1136723   4.800   6.144   0.551
 8203X2IT    O336724   4.829   6.019   0.490
 8203X2IT   C1536725   4.961   5.966   0.511
 8204X2IT   H1836726   3.312   5.244   0.594
 8204X2IT    N436727   3.392   5.305   0.602
 8204X2IT   H1736728   3.410   5.345   0.693
 8204X2IT   C1436729   3.497   5.280   0.518
 8204X2IT    O536730   3.491   5.211   0.418
 8204X2IT    O436731   3.607   5.348   0.560
 8204X2IT   C1336732   3.725   5.336   0.476
 8204X2IT   C1036733   3.720   5.435   0.359
 8204X2IT    C936734   3.844   5.431   0.273
 8204X2IT    C436735   3.904   5.556   0.268
 8204X2IT    C536736   4.029   5.586   0.192
 8204X2IT    O136737   4.073   5.702   0.191
 8204X2IT    C636738   4.091   5.475   0.124
 8204X2IT   C1236739   4.219   5.499   0.045
 8204X2IT    C736740   4.032   5.351   0.127
 8204X2IT    C836741   3.903   5.322   0.204
 8204X2IT    O236742   3.860   5.205   0.204
 8204X2IT    N336743   4.081   5.243   0.065
 8204X2IT   H1536744   4.166   5.244   0.011
 8204X2IT   H1636745   4.029   5.155   0.076
 8204X2IT    N236746   3.830   5.649   0.334
 8204X2IT    C336747   3.879   5.767   0.408
 8204X2IT    C236748   3.826   5.740   0.549
 8204X2IT    H236749   3.816   5.823   0.619
 8204X2IT    N136750   3.862   5.606   0.598
 8204X2IT   H1436751   3.856   5.604   0.700
 8204X2IT    C136752   3.727   5.630   0.544
 8204X2IT    H136753   3.640   5.626   0.608
 8204X2IT   C1136754   3.711   5.587   0.399
 8204X2IT    O336755   3.591   5.649   0.357
 8204X2IT   C1536756   3.568   5.660   0.216
 8205X2IT   H1836757   6.147   6.633   6.687
 8205X2IT    N436758   6.102   6.587   6.764
 8205X2IT   H1736759   6.084   6.488   6.754
 8205X2IT   C1436760   6.129   6.638   6.888
 8205X2IT    O536761   6.177   6.747   6.911
 8205X2IT    O436762   6.088   6.549   6.984
 8205X2IT   C1336763   6.104   6.592   7.121
 8205X2IT   C1036764   5.986   6.680   7.166
 8205X2IT    C936765   5.995   6.721   7.311
 8205X2IT    C436766   5.883   6.678   7.380
 8205X2IT    C536767   5.860   6.702   7.526
 8205X2IT    O136768   5.755   6.663   7.579
 8205X2IT    C636769   5.965   6.771   7.597
 8205X2IT   C1236770   5.949   6.798   7.745
 8205X2IT    C736771   6.076   6.815   7.528
 8205X2IT    C836772   6.098   6.790   7.379
 8205X2IT    O236773   6.204   6.830   7.328
 8205X2IT    N336774   6.178   6.881   7.585
 8205X2IT   H1536775   6.181   6.904   7.683
 8205X2IT   H1636776   6.256   6.907   7.525
 8205X2IT    N236777   5.792   6.619   7.298
 8205X2IT    C336778   5.700   6.509   7.329
 8205X2IT    C236779   5.742   6.402   7.229
 8205X2IT    H236780   5.673   6.321   7.204
 8205X2IT    N136781   5.888   6.376   7.233
 8205X2IT   H1436782   5.907   6.283   7.193
 8205X2IT    C136783   5.832   6.462   7.128
 8205X2IT    H136784   5.833   6.431   7.024
 8205X2IT   C1136785   5.844   6.611   7.159
 8205X2IT    O336786   5.757   6.673   7.065
 8205X2IT   C1536787   5.717   6.807   7.093
 8206X2IT   H1836788   6.405   3.684   1.087
 8206X2IT    N436789   6.310   3.666   1.059
 8206X2IT   H1736790   6.262   3.592   1.108
 8206X2IT   C1436791   6.239   3.773   1.012
 8206X2IT    O536792   6.287   3.879   0.976
 8206X2IT    O436793   6.106   3.742   1.008
 8206X2IT   C1336794   6.019   3.844   0.954
 8206X2IT   C1036795   6.016   3.839   0.800
 8206X2IT    C936796   5.920   3.939   0.740
 8206X2IT    C436797   5.826   3.874   0.662
 8206X2IT    C536798   5.715   3.945   0.589
 8206X2IT    O136799   5.637   3.879   0.518
 8206X2IT    C636800   5.708   4.088   0.605
 8206X2IT   C1236801   5.599   4.165   0.533
 8206X2IT    C736802   5.803   4.153   0.681
 8206X2IT    C836803   5.916   4.080   0.755
 8206X2IT    O236804   5.993   4.147   0.825
 8206X2IT    N336805   5.806   4.285   0.701
 8206X2IT   H1536806   5.738   4.348   0.661
 8206X2IT   H1636807   5.880   4.322   0.761
 8206X2IT    N236808   5.849   3.741   0.654
 8206X2IT    C336809   5.750   3.632   0.643
 8206X2IT    C236810   5.779   3.550   0.768
 8206X2IT    H236811   5.747   3.446   0.772
 8206X2IT    N136812   5.780   3.632   0.891
 8206X2IT   H1436813   5.764   3.572   0.972
 8206X2IT    C136814   5.908   3.594   0.827
 8206X2IT    H136815   5.976   3.526   0.877
 8206X2IT   C1136816   5.966   3.703   0.738
 8206X2IT    O336817   6.066   3.636   0.664
 8206X2IT   C1536818   6.112   3.701   0.544
 8207X2IT   H1836819   0.994   0.372   0.230
 8207X2IT    N436820   0.980   0.459   0.181
 8207X2IT   H1736821   0.894   0.468   0.128
 8207X2IT   C1436822   1.037   0.570   0.236
 8207X2IT    O536823   1.124   0.570   0.321
 8207X2IT    O436824   0.985   0.682   0.178
 8207X2IT   C1336825   1.041   0.808   0.221
 8207X2IT   C1036826   1.172   0.841   0.146
 8207X2IT    C936827   1.230   0.975   0.184
 8207X2IT    C436828   1.242   1.055   0.072
 8207X2IT    C536829   1.295   1.195   0.074
 8207X2IT    O136830   1.306   1.258  -0.032
 8207X2IT    C636831   1.333   1.248   0.203
 8207X2IT   C1236832   1.387   1.389   0.213
 8207X2IT    C736833   1.322   1.167   0.315
 8207X2IT    C836834   1.268   1.024   0.311
 8207X2IT    O236835   1.258   0.962   0.418
 8207X2IT    N336836   1.356   1.206   0.439
 8207X2IT   H1536837   1.391   1.298   0.460
 8207X2IT   H1636838   1.342   1.139   0.515
 8207X2IT    N236839   1.207   0.989  -0.042
 8207X2IT    C336840   1.143   1.045  -0.163
 8207X2IT    C236841   1.014   0.965  -0.171
 8207X2IT    H236842   0.960   0.958  -0.265
 8207X2IT    N136843   0.938   0.968  -0.043
 8207X2IT   H1436844   0.840   0.945  -0.062
 8207X2IT    C136845   1.021   0.850  -0.077
 8207X2IT    H136846   0.975   0.754  -0.097
 8207X2IT   C1136847   1.158   0.852  -0.011
 8207X2IT    O336848   1.231   0.753  -0.080
 8207X2IT   C1536849   1.374   0.756  -0.068
 8208X2IT   H1836850   2.108   7.921   0.341
 8208X2IT    N436851   2.173   7.852   0.374
 8208X2IT   H1736852   2.146   7.797   0.454
 8208X2IT   C1436853   2.254   7.796   0.279
 8208X2IT    O536854   2.274   7.840   0.167
 8208X2IT    O436855   2.315   7.684   0.330
 8208X2IT   C1336856   2.409   7.618   0.243
 8208X2IT   C1036857   2.548   7.684   0.250
 8208X2IT    C936858   2.652   7.613   0.166
 8208X2IT    C436859   2.758   7.574   0.245
 8208X2IT    C536860   2.878   7.500   0.193
 8208X2IT    O136861   2.970   7.471   0.270
 8208X2IT    C636862   2.877   7.467   0.052
 8208X2IT   C1236863   2.995   7.392  -0.007
 8208X2IT    C736864   2.772   7.508  -0.027
 8208X2IT    C836865   2.650   7.584   0.027
 8208X2IT    O236866   2.559   7.612  -0.052
 8208X2IT    N336867   2.763   7.484  -0.159
 8208X2IT   H1536868   2.833   7.434  -0.210
 8208X2IT   H1636869   2.679   7.518  -0.207
 8208X2IT    N236870   2.745   7.616   0.373
 8208X2IT    C336871   2.790   7.548   0.496
 8208X2IT    C236872   2.660   7.529   0.572
 8208X2IT    H236873   2.663   7.512   0.680
 8208X2IT    N136874   2.556   7.463   0.490
 8208X2IT   H1436875   2.486   7.421   0.551
 8208X2IT    C136876   2.553   7.609   0.508
 8208X2IT    H136877   2.473   7.656   0.564
 8208X2IT   C1136878   2.615   7.686   0.392
 8208X2IT    O336879   2.633   7.817   0.443
 8208X2IT   C1536880   2.723   7.903   0.373
 8209X2IT   H1836881   3.580   4.061   1.106
 8209X2IT    N436882   3.531   3.988   1.059
 8209X2IT   H1736883   3.582   3.903   1.039
 8209X2IT   C1436884   3.396   3.980   1.083
 8209X2IT    O536885   3.329   4.069   1.132
 8209X2IT    O436886   3.348   3.860   1.039
 8209X2IT   C1336887   3.206   3.841   1.052
 8209X2IT   C1036888   3.129   3.904   0.934
 8209X2IT    C936889   2.980   3.879   0.940
 8209X2IT    C436890   2.938   3.814   0.825
 8209X2IT    C536891   2.795   3.774   0.800
 8209X2IT    O136892   2.766   3.720   0.692
 8209X2IT    C636893   2.700   3.804   0.904
 8209X2IT   C1236894   2.555   3.766   0.885
 8209X2IT    C736895   2.743   3.870   1.018
 8209X2IT    C836896   2.888   3.911   1.042
 8209X2IT    O236897   2.915   3.966   1.150
 8209X2IT    N336898   2.661   3.904   1.119
 8209X2IT   H1536899   2.563   3.883   1.120
 8209X2IT   H1636900   2.704   3.951   1.199
 8209X2IT    N236901   3.038   3.798   0.736
 8209X2IT    C336902   3.058   3.687   0.641
 8209X2IT    C236903   3.193   3.632   0.684
 8209X2IT    H236904   3.252   3.571   0.615
 8209X2IT    N136905   3.199   3.602   0.829
 8209X2IT   H1436906   3.274   3.536   0.848
 8209X2IT    C136907   3.258   3.727   0.777
 8209X2IT    H136908   3.365   3.743   0.781
 8209X2IT   C1136909   3.167   3.848   0.791
 8209X2IT    O336910   3.227   3.946   0.708
 8209X2IT   C1536911   3.145   4.057   0.669
 8210X2IT   H1836912   7.498   3.299   6.479
 8210X2IT    N436913   7.444   3.344   6.550
 8210X2IT   H1736914   7.401   3.285   6.620
 8210X2IT   C1436915   7.483   3.470   6.586
 8210X2IT    O536916   7.557   3.542   6.521
 8210X2IT    O436917   7.422   3.507   6.702
 8210X2IT   C1336918   7.448   3.641   6.748
 8210X2IT   C1036919   7.356   3.744   6.679
 8210X2IT    C936920   7.376   3.885   6.729
 8210X2IT    C436921   7.257   3.935   6.779
 8210X2IT    C536922   7.242   4.072   6.837
 8210X2IT    O136923   7.130   4.110   6.876
 8210X2IT    C636924   7.361   4.153   6.844
 8210X2IT   C1236925   7.353   4.292   6.902
 8210X2IT    C736926   7.480   4.103   6.793
 8210X2IT    C836927   7.494   3.963   6.733
 8210X2IT    O236928   7.606   3.927   6.695
 8210X2IT    N336929   7.596   4.172   6.793
 8210X2IT   H1536930   7.605   4.264   6.831
 8210X2IT   H1636931   7.678   4.124   6.755
 8210X2IT    N236932   7.154   3.848   6.761
 8210X2IT    C336933   7.037   3.828   6.848
 8210X2IT    C236934   7.050   3.681   6.885
 8210X2IT    H236935   6.963   3.626   6.921
 8210X2IT    N136936   7.184   3.649   6.939
 8210X2IT   H1436937   7.179   3.563   6.994
 8210X2IT    C136938   7.152   3.617   6.799
 8210X2IT    H136939   7.145   3.514   6.766
 8210X2IT   C1136940   7.202   3.721   6.700
 8210X2IT    O336941   7.134   3.690   6.580
 8210X2IT   C1536942   7.129   3.793   6.479
 8211X2IT   H1836943   7.218   3.239   1.574
 8211X2IT    N436944   7.208   3.242   1.475
 8211X2IT   H1736945   7.148   3.314   1.437
 8211X2IT   C1436946   7.316   3.200   1.402
 8211X2IT    O536947   7.409   3.135   1.445
 8211X2IT    O436948   7.302   3.239   1.271
 8211X2IT   C1336949   7.405   3.196   1.181
 8211X2IT   C1036950   7.381   3.052   1.131
 8211X2IT    C936951   7.483   3.005   1.031
 8211X2IT    C436952   7.421   2.969   0.912
 8211X2IT    C536953   7.495   2.919   0.791
 8211X2IT    O136954   7.430   2.885   0.691
 8211X2IT    C636955   7.638   2.913   0.801
 8211X2IT   C1236956   7.719   2.863   0.682
 8211X2IT    C736957   7.700   2.948   0.920
 8211X2IT    C836958   7.624   2.998   1.043
 8211X2IT    O236959   7.690   3.031   1.142
 8211X2IT    N336960   7.833   2.943   0.939
 8211X2IT   H1536961   7.898   2.915   0.868
 8211X2IT   H1636962   7.868   2.973   1.030
 8211X2IT    N236963   7.286   2.977   0.921
 8211X2IT    C336964   7.190   3.012   0.815
 8211X2IT    C236965   7.122   3.135   0.873
 8211X2IT    H236966   7.025   3.166   0.835
 8211X2IT    N136967   7.219   3.238   0.917
 8211X2IT   H1436968   7.173   3.329   0.921
 8211X2IT    C136969   7.157   3.148   1.017
 8211X2IT    H136970   7.089   3.187   1.091
 8211X2IT   C1136971   7.245   3.030   1.054
 8211X2IT    O336972   7.157   2.942   1.122
 8211X2IT   C1536973   7.199   2.806   1.136
 8212X2IT   H1836974   1.116   6.949   7.005
 8212X2IT    N436975   1.159   7.017   7.065
 8212X2IT   H1736976   1.205   6.982   7.149
 8212X2IT   C1436977   1.207   7.130   7.005
 8212X2IT    O536978   1.179   7.167   6.892
 8212X2IT    O436979   1.289   7.197   7.091
 8212X2IT   C1336980   1.342   7.322   7.043
 8212X2IT   C1036981   1.242   7.437   7.062
 8212X2IT    C936982   1.297   7.572   7.019
 8212X2IT    C436983   1.294   7.661   7.125
 8212X2IT    C536984   1.342   7.803   7.117
 8212X2IT    O136985   1.332   7.876   7.216
 8212X2IT    C636986   1.397   7.845   6.990
 8212X2IT   C1236987   1.447   7.987   6.975
 8212X2IT    C736988   1.399   7.756   6.884
 8212X2IT    C836989   1.349   7.612   6.894
 8212X2IT    O236990   1.360   7.540   6.793
 8212X2IT    N336991   1.446   7.787   6.762
 8212X2IT   H1536992   1.485   7.877   6.739
 8212X2IT   H1636993   1.444   7.713   6.692
 8212X2IT    N236994   1.235   7.607   7.235
 8212X2IT    C336995   1.267   7.633   7.377
 8212X2IT    C236996   1.306   7.495   7.427
 8212X2IT    H236997   1.303   7.473   7.534
 8212X2IT    N136998   1.409   7.432   7.342
 8212X2IT   H1436999   1.457   7.359   7.396
 8212X2IT    C137000   1.268   7.393   7.326
 8212X2IT    H137001   1.234   7.293   7.352
 8212X2IT   C1137002   1.199   7.464   7.211
 8212X2IT    O337003   1.061   7.440   7.234
 8212X2IT   C1537004   0.968   7.526   7.166
 8213X2IT   H1837005   4.067   3.260   0.217
 8213X2IT    N437006   4.146   3.204   0.242
 8213X2IT   H1737007   4.130   3.106   0.259
 8213X2IT   C1437008   4.267   3.244   0.192
 8213X2IT    O537009   4.290   3.354   0.144
 8213X2IT    O437010   4.359   3.145   0.207
 8213X2IT   C1337011   4.494   3.176   0.164
 8213X2IT   C1037012   4.571   3.252   0.273
 8213X2IT    C937013   4.715   3.280   0.235
 8213X2IT    C437014   4.801   3.224   0.328
 8213X2IT    C537015   4.950   3.233   0.320
 8213X2IT    O137016   5.020   3.183   0.410
 8213X2IT    C637017   5.005   3.301   0.205
 8213X2IT   C1237018   5.155   3.313   0.190
 8213X2IT    C737019   4.919   3.358   0.113
 8213X2IT    C837020   4.766   3.349   0.123
 8213X2IT    O237021   4.699   3.399   0.032
 8213X2IT    N337022   4.960   3.425   0.004
 8213X2IT   H1537023   5.056   3.438  -0.020
 8213X2IT   H1637024   4.887   3.461  -0.059
 8213X2IT    N237025   4.734   3.168   0.432
 8213X2IT    C337026   4.772   3.050   0.511
 8213X2IT    C237027   4.655   2.955   0.487
 8213X2IT    H237028   4.637   2.873   0.557
 8213X2IT    N137029   4.626   2.937   0.343
 8213X2IT   H1437030   4.573   2.851   0.330
 8213X2IT    C137031   4.544   3.030   0.424
 8213X2IT    H137032   4.440   3.009   0.443
 8213X2IT   C1137033   4.587   3.175   0.411
 8213X2IT    O337034   4.521   3.241   0.518
 8213X2IT   C1537035   4.570   3.370   0.556
 8214X2IT   H1837036   0.324   7.384   6.537
 8214X2IT    N437037   0.303   7.391   6.635
 8214X2IT   H1737038   0.332   7.475   6.683
 8214X2IT   C1437039   0.190   7.325   6.677
 8214X2IT    O537040   0.131   7.239   6.613
 8214X2IT    O437041   0.156   7.367   6.802
 8214X2IT   C1337042   0.043   7.301   6.862
 8214X2IT   C1037043   0.083   7.167   6.927
 8214X2IT    C937044  -0.032   7.098   6.997
 8214X2IT    C437045  -0.002   7.078   7.131
 8214X2IT    C537046  -0.095   7.013   7.229
 8214X2IT    O137047  -0.057   6.996   7.346
 8214X2IT    C637048  -0.224   6.973   7.179
 8214X2IT   C1237049  -0.323   6.907   7.273
 8214X2IT    C737050  -0.254   6.992   7.045
 8214X2IT    C837051  -0.158   7.058   6.946
 8214X2IT    O237052  -0.197   7.075   6.829
 8214X2IT    N337053  -0.370   6.957   6.989
 8214X2IT   H1537054  -0.445   6.914   7.040
 8214X2IT   H1637055  -0.382   6.977   6.890
 8214X2IT    N237056   0.125   7.117   7.161
 8214X2IT    C337057   0.175   7.174   7.287
 8214X2IT    C237058   0.228   7.310   7.242
 8214X2IT    H237059   0.300   7.362   7.304
 8214X2IT    N137060   0.128   7.387   7.165
 8214X2IT   H1437061   0.152   7.486   7.167
 8214X2IT    C137062   0.235   7.314   7.094
 8214X2IT    H137063   0.312   7.367   7.040
 8214X2IT   C1137064   0.191   7.178   7.042
 8214X2IT    O337065   0.312   7.112   7.009
 8214X2IT   C1537066   0.308   6.970   6.994
 8215X2IT   H1837067   3.624   0.700   6.062
 8215X2IT    N437068   3.539   0.657   6.094
 8215X2IT   H1737069   3.490   0.703   6.169
 8215X2IT   C1437070   3.468   0.586   6.001
 8215X2IT    O537071   3.511   0.548   5.893
 8215X2IT    O437072   3.342   0.560   6.048
 8215X2IT   C1337073   3.258   0.480   5.963
 8215X2IT   C1037074   3.286   0.330   5.981
 8215X2IT    C937075   3.194   0.242   5.899
 8215X2IT    C437076   3.124   0.156   5.981
 8215X2IT    C537077   3.024   0.055   5.931
 8215X2IT    O137078   2.969  -0.021   6.012
 8215X2IT    C637079   2.999   0.054   5.789
 8215X2IT   C1237080   2.899  -0.044   5.732
 8215X2IT    C737081   3.070   0.140   5.707
 8215X2IT    C837082   3.172   0.241   5.759
 8215X2IT    O237083   3.226   0.317   5.677
 8215X2IT    N337084   3.055   0.145   5.574
 8215X2IT   H1537085   2.990   0.087   5.523
 8215X2IT   H1637086   3.111   0.214   5.523
 8215X2IT    N237087   3.163   0.166   6.111
 8215X2IT    C337088   3.080   0.148   6.231
 8215X2IT    C237089   3.092   0.284   6.299
 8215X2IT    H237090   3.070   0.294   6.405
 8215X2IT    N137091   3.059   0.396   6.207
 8215X2IT   H1437092   3.034   0.479   6.262
 8215X2IT    C137093   3.200   0.362   6.234
 8215X2IT    H137094   3.264   0.431   6.289
 8215X2IT   C1137095   3.263   0.275   6.127
 8215X2IT    O337096   3.383   0.228   6.187
 8215X2IT   C1537097   3.445   0.113   6.127
 8216X2IT   H1837098   5.652   7.947   7.431
 8216X2IT    N437099   5.655   7.854   7.393
 8216X2IT   H1737100   5.574   7.795   7.407
 8216X2IT   C1437101   5.729   7.837   7.279
 8216X2IT    O537102   5.812   7.916   7.237
 8216X2IT    O437103   5.700   7.717   7.221
 8216X2IT   C1337104   5.776   7.683   7.103
 8216X2IT   C1037105   5.912   7.622   7.140
 8216X2IT    C937106   5.992   7.578   7.020
 8216X2IT    C437107   6.022   7.443   7.028
 8216X2IT    C537108   6.099   7.368   6.924
 8216X2IT    O137109   6.124   7.248   6.942
 8216X2IT    C637110   6.141   7.443   6.808
 8216X2IT   C1237111   6.220   7.372   6.699
 8216X2IT    C737112   6.113   7.578   6.800
 8216X2IT    C837113   6.034   7.654   6.907
 8216X2IT    O237114   6.010   7.774   6.888
 8216X2IT    N337115   6.149   7.656   6.697
 8216X2IT   H1537116   6.200   7.622   6.617
 8216X2IT   H1637117   6.121   7.754   6.701
 8216X2IT    N237118   5.979   7.389   7.145
 8216X2IT    C337119   5.930   7.252   7.169
 8216X2IT    C237120   5.789   7.277   7.220
 8216X2IT    H237121   5.738   7.199   7.277
 8216X2IT    N137122   5.711   7.365   7.130
 8216X2IT   H1437123   5.611   7.351   7.147
 8216X2IT    C137124   5.773   7.421   7.252
 8216X2IT    H137125   5.711   7.457   7.334
 8216X2IT   C1137126   5.906   7.490   7.226
 8216X2IT    O337127   5.962   7.505   7.355
 8216X2IT   C1537128   6.103   7.532   7.362
 8217X2IT   H1837129   9.446   3.209   0.751
 8217X2IT    N437130   9.398   3.158   0.822
 8217X2IT   H1737131   9.345   3.211   0.890
 8217X2IT   C1437132   9.355   3.032   0.788
 8217X2IT    O537133   9.393   2.969   0.691
 8217X2IT    O437134   9.266   2.987   0.880
 8217X2IT   C1337135   9.217   2.852   0.860
 8217X2IT   C1037136   9.315   2.748   0.917
 8217X2IT    C937137   9.264   2.606   0.904
 8217X2IT    C437138   9.257   2.546   1.029
 8217X2IT    C537139   9.210   2.406   1.052
 8217X2IT    O137140   9.211   2.359   1.167
 8217X2IT    C637141   9.167   2.332   0.935
 8217X2IT   C1237142   9.117   2.190   0.952
 8217X2IT    C737143   9.174   2.392   0.811
 8217X2IT    C837144   9.223   2.535   0.788
 8217X2IT    O237145   9.222   2.580   0.673
 8217X2IT    N337146   9.138   2.331   0.697
 8217X2IT   H1537147   9.102   2.237   0.693
 8217X2IT   H1637148   9.147   2.385   0.610
 8217X2IT    N237149   9.306   2.627   1.127
 8217X2IT    C337150   9.261   2.636   1.267
 8217X2IT    C237151   9.218   2.781   1.277
 8217X2IT    H237152   9.211   2.829   1.375
 8217X2IT    N137153   9.122   2.820   1.171
 8217X2IT   H1437154   9.070   2.902   1.200
 8217X2IT    C137155   9.265   2.856   1.158
 8217X2IT    H137156   9.296   2.960   1.161
 8217X2IT   C1137157   9.344   2.760   1.071
 8217X2IT    O337158   9.479   2.791   1.099
 8217X2IT   C1537159   9.578   2.694   1.063
 8218X2IT   H1837160   5.101   4.579   0.716
 8218X2IT    N437161   5.137   4.515   0.648
 8218X2IT   H1737162   5.209   4.549   0.586
 8218X2IT   C1437163   5.137   4.383   0.683
 8218X2IT    O537164   5.073   4.335   0.775
 8218X2IT    O437165   5.216   4.312   0.596
 8218X2IT   C1337166   5.219   4.169   0.617
 8218X2IT   C1037167   5.099   4.099   0.551
 8218X2IT    C937168   5.103   3.949   0.564
 8218X2IT    C437169   5.102   3.890   0.439
 8218X2IT    C537170   5.106   3.742   0.416
 8218X2IT    O137171   5.100   3.697   0.301
 8218X2IT    C637172   5.115   3.659   0.534
 8218X2IT   C1237173   5.120   3.508   0.518
 8218X2IT    C737174   5.115   3.718   0.659
 8218X2IT    C837175   5.110   3.869   0.681
 8218X2IT    O237176   5.116   3.911   0.797
 8218X2IT    N337177   5.122   3.649   0.774
 8218X2IT   H1537178   5.127   3.549   0.778
 8218X2IT   H1637179   5.123   3.703   0.861
 8218X2IT    N237180   5.088   3.981   0.339
 8218X2IT    C337181   5.145   3.976   0.204
 8218X2IT    C237182   5.231   4.101   0.200
 8218X2IT    H237183   5.260   4.144   0.104
 8218X2IT    N137184   5.324   4.109   0.315
 8218X2IT   H1437185   5.402   4.172   0.292
 8218X2IT    C137186   5.199   4.187   0.317
 8218X2IT    H137187   5.201   4.295   0.313
 8218X2IT   C1137188   5.087   4.120   0.395
 8218X2IT    O337189   4.971   4.191   0.357
 8218X2IT   C1537190   4.845   4.128   0.383
 8219X2IT   H1837191   8.426   0.786  -0.202
 8219X2IT    N437192   8.367   0.735  -0.139
 8219X2IT   H1737193   8.321   0.652  -0.176
 8219X2IT   C1437194   8.401   0.738  -0.007
 8219X2IT    O537195   8.478   0.818   0.044
 8219X2IT    O437196   8.333   0.641   0.061
 8219X2IT   C1337197   8.354   0.637   0.204
 8219X2IT   C1037198   8.264   0.739   0.277
 8219X2IT    C937199   8.278   0.733   0.427
 8219X2IT    C437200   8.155   0.706   0.485
 8219X2IT    C537201   8.134   0.693   0.633
 8219X2IT    O137202   8.020   0.673   0.677
 8219X2IT    C637203   8.251   0.706   0.717
 8219X2IT   C1237204   8.237   0.694   0.867
 8219X2IT    C737205   8.374   0.734   0.659
 8219X2IT    C837206   8.394   0.748   0.507
 8219X2IT    O237207   8.509   0.768   0.466
 8219X2IT    N337208   8.487   0.749   0.728
 8219X2IT   H1537209   8.493   0.741   0.828
 8219X2IT   H1637210   8.573   0.767   0.674
 8219X2IT    N237211   8.055   0.702   0.394
 8219X2IT    C337212   7.934   0.618   0.397
 8219X2IT    C237213   7.948   0.537   0.269
 8219X2IT    H237214   7.860   0.490   0.224
 8219X2IT    N137215   8.080   0.470   0.259
 8219X2IT   H1437216   8.073   0.391   0.194
 8219X2IT    C137217   8.056   0.595   0.185
 8219X2IT    H137218   8.053   0.596   0.077
 8219X2IT   C1137219   8.109   0.719   0.256
 8219X2IT    O337220   8.048   0.827   0.188
 8219X2IT   C1537221   8.047   0.954   0.255
 8220X2IT   H1837222   6.476   7.573   6.343
 8220X2IT    N437223   6.546   7.600   6.411
 8220X2IT   H1737224   6.588   7.526   6.465
 8220X2IT   C1437225   6.618   7.712   6.382
 8220X2IT    O537226   6.589   7.795   6.298
 8220X2IT    O437227   6.727   7.719   6.464
 8220X2IT   C1337228   6.810   7.837   6.449
 8220X2IT   C1037229   6.754   7.956   6.528
 8220X2IT    C937230   6.841   8.079   6.521
 8220X2IT    C437231   6.879   8.118   6.648
 8220X2IT    C537232   6.967   8.236   6.677
 8220X2IT    O137233   6.993   8.266   6.794
 8220X2IT    C637234   7.016   8.309   6.563
 8220X2IT   C1237235   7.106   8.429   6.584
 8220X2IT    C737236   6.978   8.270   6.436
 8220X2IT    C837237   6.887   8.150   6.408
 8220X2IT    O237238   6.863   8.122   6.290
 8220X2IT    N337239   7.017   8.333   6.323
 8220X2IT   H1537240   7.078   8.413   6.323
 8220X2IT   H1637241   6.983   8.295   6.235
 8220X2IT    N237242   6.821   8.042   6.745
 8220X2IT    C337243   6.876   8.003   6.875
 8220X2IT    C237244   6.877   7.851   6.867
 8220X2IT    H237245   6.881   7.792   6.958
 8220X2IT    N137246   6.944   7.802   6.744
 8220X2IT   H1437247   6.973   7.705   6.758
 8220X2IT    C137248   6.797   7.808   6.749
 8220X2IT    H137249   6.738   7.718   6.748
 8220X2IT   C1137250   6.739   7.933   6.684
 8220X2IT    O337251   6.605   7.936   6.728
 8220X2IT   C1537252   6.535   8.061   6.716
 8221X2IT   H1837253   2.942   7.414   5.828
 8221X2IT    N437254   2.959   7.497   5.881
 8221X2IT   H1737255   2.927   7.497   5.977
 8221X2IT   C1437256   3.071   7.569   5.849
 8221X2IT    O537257   3.134   7.557   5.745
 8221X2IT    O437258   3.098   7.659   5.947
 8221X2IT   C1337259   3.210   7.747   5.923
 8221X2IT   C1037260   3.170   7.868   5.836
 8221X2IT    C937261   3.283   7.966   5.814
 8221X2IT    C437262   3.246   8.091   5.860
 8221X2IT    C537263   3.336   8.211   5.855
 8221X2IT    O137264   3.294   8.321   5.895
 8221X2IT    C637265   3.468   8.191   5.800
 8221X2IT   C1237266   3.564   8.308   5.792
 8221X2IT    C737267   3.504   8.066   5.753
 8221X2IT    C837268   3.411   7.944   5.759
 8221X2IT    O237269   3.455   7.835   5.718
 8221X2IT    N337270   3.623   8.038   5.699
 8221X2IT   H1537271   3.697   8.105   5.690
 8221X2IT   H1637272   3.639   7.941   5.669
 8221X2IT    N237273   3.118   8.094   5.904
 8221X2IT    C337274   3.062   8.175   6.013
 8221X2IT    C237275   3.008   8.069   6.108
 8221X2IT    H237276   2.932   8.095   6.182
 8221X2IT    N137277   3.110   7.967   6.142
 8221X2IT   H1437278   3.084   7.920   6.229
 8221X2IT    C137279   3.008   7.937   6.039
 8221X2IT    H137280   2.932   7.862   6.057
 8221X2IT   C1137281   3.056   7.959   5.897
 8221X2IT    O337282   2.938   7.959   5.820
 8221X2IT   C1537283   2.946   8.014   5.688
 8222X2IT   H1837284   7.421   3.353  -0.103
 8222X2IT    N437285   7.493   3.326  -0.039
 8222X2IT   H1737286   7.559   3.397  -0.010
 8222X2IT   C1437287   7.460   3.227   0.050
 8222X2IT    O537288   7.364   3.152   0.039
 8222X2IT    O437289   7.552   3.221   0.150
 8222X2IT   C1337290   7.534   3.116   0.247
 8222X2IT   C1037291   7.593   2.983   0.198
 8222X2IT    C937292   7.582   2.872   0.300
 8222X2IT    C437293   7.708   2.822   0.330
 8222X2IT    C537294   7.733   2.711   0.428
 8222X2IT    O137295   7.849   2.670   0.446
 8222X2IT    C637296   7.617   2.658   0.496
 8222X2IT   C1237297   7.636   2.547   0.597
 8222X2IT    C737298   7.492   2.708   0.466
 8222X2IT    C837299   7.468   2.820   0.365
 8222X2IT    O237300   7.351   2.859   0.349
 8222X2IT    N337301   7.379   2.663   0.523
 8222X2IT   H1537302   7.376   2.591   0.593
 8222X2IT   H1637303   7.291   2.708   0.494
 8222X2IT    N237304   7.805   2.879   0.254
 8222X2IT    C337305   7.944   2.907   0.291
 8222X2IT    C237306   7.952   3.059   0.275
 8222X2IT    H237307   8.049   3.107   0.263
 8222X2IT    N137308   7.844   3.129   0.347
 8222X2IT   H1437309   7.871   3.226   0.363
 8222X2IT    C137310   7.832   3.106   0.202
 8222X2IT    H137311   7.834   3.190   0.133
 8222X2IT   C1137312   7.747   2.985   0.166
 8222X2IT    O337313   7.776   2.962   0.029
 8222X2IT   C1537314   7.743   2.833  -0.024
 8223X2IT   H1837315   9.352   6.251   7.537
 8223X2IT    N437316   9.354   6.228   7.439
 8223X2IT   H1737317   9.413   6.150   7.412
 8223X2IT   C1437318   9.240   6.253   7.368
 8223X2IT    O537319   9.148   6.325   7.405
 8223X2IT    O437320   9.245   6.189   7.248
 8223X2IT   C1337321   9.134   6.212   7.159
 8223X2IT   C1037322   9.151   6.343   7.079
 8223X2IT    C937323   9.040   6.367   6.980
 8223X2IT    C437324   9.092   6.379   6.852
 8223X2IT    C537325   9.009   6.403   6.730
 8223X2IT    O137326   9.064   6.416   6.620
 8223X2IT    C637327   8.866   6.410   6.749
 8223X2IT   C1237328   8.776   6.434   6.630
 8223X2IT    C737329   8.814   6.399   6.877
 8223X2IT    C837330   8.900   6.375   7.001
 8223X2IT    O237331   8.843   6.362   7.110
 8223X2IT    N337332   8.683   6.406   6.905
 8223X2IT   H1537333   8.612   6.419   6.835
 8223X2IT   H1637334   8.656   6.395   7.003
 8223X2IT    N237335   9.228   6.375   6.852
 8223X2IT    C337336   9.316   6.320   6.748
 8223X2IT    C237337   9.392   6.212   6.824
 8223X2IT    H237338   9.487   6.175   6.785
 8223X2IT    N137339   9.301   6.119   6.895
 8223X2IT   H1437340   9.350   6.031   6.914
 8223X2IT    C137341   9.368   6.227   6.969
 8223X2IT    H137342   9.442   6.205   7.044
 8223X2IT   C1137343   9.280   6.350   6.989
 8223X2IT    O337344   9.371   6.451   7.030
 8223X2IT   C1537345   9.326   6.587   7.020
 8224X2IT   H1837346   7.853   1.450   6.537
 8224X2IT    N437347   7.873   1.548   6.541
 8224X2IT   H1737348   7.882   1.590   6.632
 8224X2IT   C1437349   7.947   1.599   6.437
 8224X2IT    O537350   7.965   1.544   6.330
 8224X2IT    O437351   7.994   1.723   6.470
 8224X2IT   C1337352   8.068   1.792   6.367
 8224X2IT   C1037353   7.974   1.864   6.269
 8224X2IT    C937354   8.048   1.943   6.163
 8224X2IT    C437355   8.010   2.076   6.168
 8224X2IT    C537356   8.065   2.183   6.078
 8224X2IT    O137357   8.022   2.299   6.087
 8224X2IT    C637358   8.165   2.141   5.983
 8224X2IT   C1237359   8.225   2.243   5.889
 8224X2IT    C737360   8.202   2.008   5.977
 8224X2IT    C837361   8.145   1.900   6.070
 8224X2IT    O237362   8.189   1.785   6.059
 8224X2IT    N337363   8.294   1.959   5.892
 8224X2IT   H1537364   8.343   2.017   5.825
 8224X2IT   H1637365   8.315   1.859   5.898
 8224X2IT    N237366   7.911   2.098   6.259
 8224X2IT    C337367   7.889   2.218   6.341
 8224X2IT    C237368   7.899   2.162   6.483
 8224X2IT    H237369   7.855   2.218   6.566
 8224X2IT    N137370   8.023   2.085   6.504
 8224X2IT   H1437371   8.043   2.080   6.604
 8224X2IT    C137372   7.896   2.014   6.478
 8224X2IT    H137373   7.850   1.953   6.554
 8224X2IT   C1137374   7.879   1.972   6.333
 8224X2IT    O337375   7.742   1.939   6.322
 8224X2IT   C1537376   7.686   1.932   6.190
 8225X2IT   H1837377   1.549   7.484   0.253
 8225X2IT    N437378   1.510   7.507   0.342
 8225X2IT   H1737379   1.443   7.443   0.382
 8225X2IT   C1437380   1.591   7.579   0.427
 8225X2IT    O537381   1.691   7.639   0.394
 8225X2IT    O437382   1.539   7.577   0.553
 8225X2IT   C1337383   1.610   7.654   0.652
 8225X2IT   C1037384   1.569   7.802   0.648
 8225X2IT    C937385   1.637   7.885   0.754
 8225X2IT    C437386   1.541   7.946   0.834
 8225X2IT    C537387   1.574   8.036   0.950
 8225X2IT    O137388   1.483   8.089   1.014
 8225X2IT    C637389   1.714   8.054   0.980
 8225X2IT   C1237390   1.755   8.143   1.096
 8225X2IT    C737391   1.809   7.994   0.899
 8225X2IT    C837392   1.774   7.904   0.781
 8225X2IT    O237393   1.868   7.851   0.718
 8225X2IT    N337394   1.942   8.007   0.918
 8225X2IT   H1537395   1.982   8.061   0.992
 8225X2IT   H1637396   2.003   7.956   0.853
 8225X2IT    N237397   1.415   7.923   0.790
 8225X2IT    C337398   1.293   7.909   0.871
 8225X2IT    C237399   1.247   7.768   0.836
 8225X2IT    H237400   1.143   7.739   0.852
 8225X2IT    N137401   1.355   7.668   0.853
 8225X2IT   H1437402   1.313   7.575   0.863
 8225X2IT    C137403   1.324   7.719   0.718
 8225X2IT    H137404   1.281   7.654   0.643
 8225X2IT   C1137405   1.416   7.831   0.673
 8225X2IT    O337406   1.351   7.887   0.561
 8225X2IT   C1537407   1.393   8.017   0.519
 8226X2IT   H1837408   4.658   1.634  -0.118
 8226X2IT    N437409   4.738   1.649  -0.059
 8226X2IT   H1737410   4.806   1.717  -0.091
 8226X2IT   C1437411   4.719   1.632   0.075
 8226X2IT    O537412   4.624   1.574   0.126
 8226X2IT    O437413   4.824   1.685   0.144
 8226X2IT   C1337414   4.820   1.669   0.287
 8226X2IT   C1037415   4.875   1.531   0.329
 8226X2IT    C937416   4.880   1.512   0.479
 8226X2IT    C437417   5.009   1.484   0.520
 8226X2IT    C537418   5.049   1.461   0.662
 8226X2IT    O137419   5.167   1.433   0.689
 8226X2IT    C637420   4.945   1.472   0.761
 8226X2IT   C1237421   4.978   1.450   0.907
 8226X2IT    C737422   4.815   1.499   0.721
 8226X2IT    C837423   4.776   1.522   0.574
 8226X2IT    O237424   4.657   1.550   0.550
 8226X2IT    N337425   4.711   1.509   0.805
 8226X2IT   H1537426   4.720   1.499   0.904
 8226X2IT   H1637427   4.620   1.531   0.764
 8226X2IT    N237428   5.094   1.473   0.414
 8226X2IT    C337429   5.237   1.509   0.409
 8226X2IT    C237430   5.240   1.613   0.298
 8226X2IT    H237431   5.333   1.636   0.247
 8226X2IT    N137432   5.140   1.721   0.320
 8226X2IT   H1437433   5.168   1.804   0.267
 8226X2IT    C137434   5.110   1.612   0.226
 8226X2IT    H137435   5.101   1.631   0.120
 8226X2IT   C1137436   5.024   1.502   0.286
 8226X2IT    O337437   5.035   1.395   0.194
 8226X2IT   C1537438   4.997   1.264   0.241
 8227X2IT   H1837439   9.422   6.258   5.954
 8227X2IT    N437440   9.467   6.342   5.923
 8227X2IT   H1737441   9.568   6.342   5.919
 8227X2IT   C1437442   9.397   6.420   5.835
 8227X2IT    O537443   9.278   6.411   5.813
 8227X2IT    O437444   9.480   6.512   5.778
 8227X2IT   C1337445   9.419   6.606   5.687
 8227X2IT   C1037446   9.355   6.724   5.763
 8227X2IT    C937447   9.295   6.828   5.671
 8227X2IT    C437448   9.353   6.951   5.694
 8227X2IT    C537449   9.317   7.076   5.619
 8227X2IT    O137450   9.372   7.183   5.650
 8227X2IT    C637451   9.218   7.063   5.515
 8227X2IT   C1237452   9.178   7.185   5.435
 8227X2IT    C737453   9.160   6.940   5.493
 8227X2IT    C837454   9.197   6.813   5.570
 8227X2IT    O237455   9.141   6.707   5.538
 8227X2IT    N337456   9.066   6.918   5.399
 8227X2IT   H1537457   9.031   6.990   5.338
 8227X2IT   H1637458   9.030   6.822   5.390
 8227X2IT    N237459   9.440   6.948   5.798
 8227X2IT    C337460   9.564   7.026   5.815
 8227X2IT    C237461   9.670   6.917   5.825
 8227X2IT    H237462   9.766   6.939   5.871
 8227X2IT    N137463   9.662   6.821   5.713
 8227X2IT   H1437464   9.752   6.773   5.703
 8227X2IT    C137465   9.604   6.785   5.844
 8227X2IT    H137466   9.646   6.706   5.903
 8227X2IT   C1137467   9.454   6.809   5.851
 8227X2IT    O337468   9.425   6.802   5.989
 8227X2IT   C1537469   9.300   6.858   6.033
 8228X2IT   H1837470   7.996   3.174   1.148
 8228X2IT    N437471   8.005   3.258   1.092
 8228X2IT   H1737472   8.093   3.271   1.043
 8228X2IT   C1437473   7.890   3.307   1.038
 8228X2IT    O537474   7.777   3.277   1.072
 8228X2IT    O437475   7.920   3.400   0.942
 8228X2IT   C1337476   7.808   3.466   0.880
 8228X2IT   C1037477   7.758   3.584   0.965
 8228X2IT    C937478   7.645   3.660   0.900
 8228X2IT    C437479   7.680   3.793   0.884
 8228X2IT    C537480   7.590   3.896   0.822
 8228X2IT    O137481   7.629   4.014   0.815
 8228X2IT    C637482   7.462   3.850   0.775
 8228X2IT   C1237483   7.367   3.949   0.711
 8228X2IT    C737484   7.427   3.718   0.792
 8228X2IT    C837485   7.519   3.614   0.856
 8228X2IT    O237486   7.479   3.496   0.862
 8228X2IT    N337487   7.309   3.666   0.753
 8228X2IT   H1537488   7.238   3.720   0.707
 8228X2IT   H1637489   7.294   3.566   0.769
 8228X2IT    N237490   7.802   3.821   0.938
 8228X2IT    C337491   7.901   3.918   0.891
 8228X2IT    C237492   8.022   3.830   0.862
 8228X2IT    H237493   8.121   3.874   0.858
 8228X2IT    N137494   7.988   3.716   0.774
 8228X2IT   H1437495   8.073   3.681   0.730
 8228X2IT    C137496   7.999   3.695   0.920
 8228X2IT    H137497   8.079   3.635   0.962
 8228X2IT   C1137498   7.865   3.697   0.992
 8228X2IT    O337499   7.899   3.710   1.129
 8228X2IT   C1537500   7.795   3.753   1.218
 8229X2IT   H1837501   7.724   5.182   6.098
 8229X2IT    N437502   7.769   5.221   6.179
 8229X2IT   H1737503   7.864   5.252   6.168
 8229X2IT   C1437504   7.688   5.285   6.269
 8229X2IT    O537505   7.566   5.275   6.274
 8229X2IT    O437506   7.763   5.358   6.356
 8229X2IT   C1337507   7.691   5.426   6.461
 8229X2IT   C1037508   7.663   5.332   6.580
 8229X2IT    C937509   7.594   5.401   6.695
 8229X2IT    C437510   7.670   5.390   6.810
 8229X2IT    C537511   7.630   5.448   6.943
 8229X2IT    O137512   7.703   5.430   7.041
 8229X2IT    C637513   7.507   5.523   6.946
 8229X2IT   C1237514   7.461   5.584   7.077
 8229X2IT    C737515   7.431   5.533   6.831
 8229X2IT    C837516   7.472   5.473   6.697
 8229X2IT    O237517   7.398   5.492   6.599
 8229X2IT    N337518   7.314   5.599   6.825
 8229X2IT   H1537519   7.273   5.646   6.904
 8229X2IT   H1637520   7.266   5.602   6.735
 8229X2IT    N237521   7.780   5.313   6.791
 8229X2IT    C337522   7.912   5.327   6.855
 8229X2IT    C237523   8.004   5.349   6.735
 8229X2IT    H237524   8.111   5.330   6.745
 8229X2IT    N137525   7.956   5.459   6.648
 8229X2IT   H1437526   8.034   5.494   6.592
 8229X2IT    C137527   7.930   5.318   6.610
 8229X2IT    H137528   7.977   5.275   6.523
 8229X2IT   C1137529   7.791   5.271   6.648
 8229X2IT    O337530   7.798   5.130   6.636
 8229X2IT   C1537531   7.696   5.053   6.701
 8230X2IT   H1837532   7.774   7.239   0.425
 8230X2IT    N437533   7.833   7.319   0.439
 8230X2IT   H1737534   7.928   7.312   0.408
 8230X2IT   C1437535   7.771   7.441   0.436
 8230X2IT    O537536   7.651   7.460   0.446
 8230X2IT    O437537   7.865   7.540   0.424
 8230X2IT   C1337538   7.815   7.675   0.426
 8230X2IT   C1037539   7.793   7.725   0.570
 8230X2IT    C937540   7.747   7.869   0.577
 8230X2IT    C437541   7.836   7.944   0.652
 8230X2IT    C537542   7.821   8.091   0.677
 8230X2IT    O137543   7.904   8.150   0.749
 8230X2IT    C637544   7.707   8.156   0.616
 8230X2IT   C1237545   7.686   8.304   0.638
 8230X2IT    C737546   7.618   8.081   0.542
 8230X2IT    C837547   7.634   7.931   0.518
 8230X2IT    O237548   7.550   7.874   0.446
 8230X2IT    N337549   7.508   8.131   0.483
 8230X2IT   H1537550   7.484   8.229   0.488
 8230X2IT   H1637551   7.450   8.067   0.430
 8230X2IT    N237552   7.935   7.868   0.706
 8230X2IT    C337553   8.075   7.906   0.731
 8230X2IT    C237554   8.151   7.805   0.647
 8230X2IT    H237555   8.256   7.785   0.669
 8230X2IT    N137556   8.104   7.802   0.507
 8230X2IT   H1437557   8.177   7.762   0.447
 8230X2IT    C137558   8.059   7.698   0.601
 8230X2IT    H137559   8.089   7.595   0.589
 8230X2IT   C1137560   7.922   7.726   0.661
 8230X2IT    O337561   7.913   7.637   0.770
 8230X2IT   C1537562   7.813   7.665   0.870
 8231X2IT   H1837563   9.590   0.167   6.743
 8231X2IT    N437564   9.574   0.264   6.766
 8231X2IT   H1737565   9.630   0.302   6.841
 8231X2IT   C1437566   9.533   0.345   6.665
 8231X2IT    O537567   9.488   0.308   6.558
 8231X2IT    O437568   9.545   0.476   6.703
 8231X2IT   C1337569   9.499   0.574   6.608
 8231X2IT   C1037570   9.347   0.595   6.618
 8231X2IT    C937571   9.295   0.702   6.525
 8231X2IT    C437572   9.231   0.801   6.597
 8231X2IT    C537573   9.168   0.923   6.535
 8231X2IT    O137574   9.109   1.005   6.607
 8231X2IT    C637575   9.181   0.936   6.391
 8231X2IT   C1237576   9.121   1.057   6.322
 8231X2IT    C737577   9.245   0.837   6.319
 8231X2IT    C837578   9.307   0.713   6.384
 8231X2IT    O237579   9.365   0.632   6.310
 8231X2IT    N337580   9.260   0.839   6.186
 8231X2IT   H1537581   9.226   0.914   6.128
 8231X2IT   H1637582   9.310   0.761   6.143
 8231X2IT    N237583   9.223   0.772   6.729
 8231X2IT    C337584   9.227   0.865   6.843
 8231X2IT    C237585   9.349   0.818   6.920
 8231X2IT    H237586   9.361   0.844   7.025
 8231X2IT    N137587   9.469   0.808   6.833
 8231X2IT   H1437588   9.553   0.810   6.892
 8231X2IT    C137589   9.393   0.686   6.867
 8231X2IT    H137590   9.436   0.609   6.929
 8231X2IT   C1137591   9.295   0.644   6.758
 8231X2IT    O337592   9.210   0.550   6.822
 8231X2IT   C1537593   9.085   0.521   6.759
 8232X2IT   H1837594   8.679   5.805   6.422
 8232X2IT    N437595   8.652   5.711   6.441
 8232X2IT   H1737596   8.629   5.688   6.536
 8232X2IT   C1437597   8.589   5.644   6.339
 8232X2IT    O537598   8.588   5.678   6.222
 8232X2IT    O437599   8.531   5.530   6.387
 8232X2IT   C1337600   8.466   5.446   6.290
 8232X2IT   C1037601   8.567   5.353   6.220
 8232X2IT    C937602   8.502   5.258   6.122
 8232X2IT    C437603   8.530   5.127   6.156
 8232X2IT    C537604   8.481   5.008   6.080
 8232X2IT    O137605   8.514   4.894   6.116
 8232X2IT    C637606   8.396   5.034   5.967
 8232X2IT   C1237607   8.342   4.918   5.886
 8232X2IT    C737608   8.368   5.165   5.932
 8232X2IT    C837609   8.420   5.286   6.010
 8232X2IT    O237610   8.385   5.399   5.972
 8232X2IT    N337611   8.292   5.200   5.827
 8232X2IT   H1537612   8.248   5.133   5.766
 8232X2IT   H1637613   8.277   5.300   5.811
 8232X2IT    N237614   8.615   5.119   6.262
 8232X2IT    C337615   8.619   5.016   6.368
 8232X2IT    C237616   8.595   5.098   6.494
 8232X2IT    H237617   8.624   5.058   6.591
 8232X2IT    N137618   8.474   5.183   6.483
 8232X2IT   H1437619   8.442   5.208   6.577
 8232X2IT    C137620   8.608   5.243   6.462
 8232X2IT    H137621   8.647   5.315   6.532
 8232X2IT   C1137622   8.646   5.255   6.315
 8232X2IT    O337623   8.785   5.281   6.318
 8232X2IT   C1537624   8.857   5.260   6.196
 8233X2IT   H1837625   6.752   5.806   0.642
 8233X2IT    N437626   6.820   5.877   0.663
 8233X2IT   H1737627   6.805   5.968   0.623
 8233X2IT   C1437628   6.882   5.867   0.785
 8233X2IT    O537629   6.883   5.768   0.855
 8233X2IT    O437630   6.948   5.983   0.813
 8233X2IT   C1337631   7.024   5.985   0.935
 8233X2IT   C1037632   7.163   5.923   0.916
 8233X2IT    C937633   7.249   5.929   1.040
 8233X2IT    C437634   7.366   5.997   1.014
 8233X2IT    C537635   7.474   6.022   1.116
 8233X2IT    O137636   7.577   6.081   1.082
 8233X2IT    C637637   7.448   5.974   1.249
 8233X2IT   C1237638   7.552   5.996   1.357
 8233X2IT    C737639   7.331   5.905   1.275
 8233X2IT    C837640   7.223   5.879   1.170
 8233X2IT    O237641   7.120   5.820   1.206
 8233X2IT    N337642   7.300   5.854   1.395
 8233X2IT   H1537643   7.359   5.863   1.476
 8233X2IT   H1637644   7.210   5.806   1.404
 8233X2IT    N237645   7.377   6.032   0.883
 8233X2IT    C337646   7.441   6.152   0.826
 8233X2IT    C237647   7.325   6.219   0.753
 8233X2IT    H237648   7.346   6.291   0.674
 8233X2IT    N137649   7.207   6.237   0.840
 8233X2IT   H1437650   7.147   6.311   0.801
 8233X2IT    C137651   7.211   6.125   0.745
 8233X2IT    H137652   7.143   6.122   0.660
 8233X2IT   C1137653   7.254   5.993   0.808
 8233X2IT    O337654   7.283   5.910   0.697
 8233X2IT   C1537655   7.363   5.793   0.723
 8234X2IT   H1837656   1.257   4.896   7.671
 8234X2IT    N437657   1.251   4.904   7.571
 8234X2IT   H1737658   1.199   4.833   7.523
 8234X2IT   C1437659   1.256   5.030   7.519
 8234X2IT    O537660   1.294   5.129   7.579
 8234X2IT    O437661   1.216   5.028   7.389
 8234X2IT   C1337662   1.222   5.154   7.318
 8234X2IT   C1037663   1.364   5.182   7.265
 8234X2IT    C937664   1.373   5.310   7.185
 8234X2IT    C437665   1.419   5.283   7.058
 8234X2IT    C537666   1.439   5.388   6.952
 8234X2IT    O137667   1.485   5.356   6.841
 8234X2IT    C637668   1.404   5.523   6.988
 8234X2IT   C1237669   1.421   5.634   6.886
 8234X2IT    C737670   1.359   5.550   7.116
 8234X2IT    C837671   1.340   5.442   7.223
 8234X2IT    O237672   1.294   5.477   7.333
 8234X2IT    N337673   1.325   5.673   7.159
 8234X2IT   H1537674   1.330   5.755   7.101
 8234X2IT   H1637675   1.291   5.681   7.255
 8234X2IT    N237676   1.452   5.153   7.042
 8234X2IT    C337677   1.441   5.071   6.920
 8234X2IT    C237678   1.346   4.960   6.964
 8234X2IT    H237679   1.343   4.866   6.909
 8234X2IT    N137680   1.222   5.013   7.025
 8234X2IT   H1437681   1.149   4.942   7.021
 8234X2IT    C137682   1.331   4.964   7.112
 8234X2IT    H137683   1.318   4.875   7.172
 8234X2IT   C1137684   1.421   5.075   7.165
 8234X2IT    O337685   1.534   5.007   7.215
 8234X2IT   C1537686   1.653   5.084   7.237
 8235X2IT   H1837687   1.024   1.263   5.495
 8235X2IT    N437688   1.025   1.241   5.593
 8235X2IT   H1737689   1.107   1.268   5.645
 8235X2IT   C1437690   0.903   1.240   5.656
 8235X2IT    O537691   0.795   1.235   5.600
 8235X2IT    O437692   0.921   1.241   5.791
 8235X2IT   C1337693   0.801   1.233   5.871
 8235X2IT   C1037694   0.754   1.087   5.888
 8235X2IT    C937695   0.633   1.074   5.977
 8235X2IT    C437696   0.661   0.991   6.083
 8235X2IT    C537697   0.562   0.957   6.191
 8235X2IT    O137698   0.594   0.878   6.281
 8235X2IT    C637699   0.432   1.019   6.182
 8235X2IT   C1237700   0.328   0.989   6.288
 8235X2IT    C737701   0.404   1.102   6.075
 8235X2IT    C837702   0.505   1.135   5.965
 8235X2IT    O237703   0.471   1.214   5.876
 8235X2IT    N337704   0.286   1.162   6.056
 8235X2IT   H1537705   0.209   1.153   6.120
 8235X2IT   H1637706   0.277   1.223   5.974
 8235X2IT    N237707   0.785   0.937   6.075
 8235X2IT    C337708   0.876   0.902   6.185
 8235X2IT    C237709   0.997   0.989   6.155
 8235X2IT    H237710   1.094   0.963   6.198
 8235X2IT    N137711   0.961   1.131   6.136
 8235X2IT   H1437712   1.044   1.189   6.151
 8235X2IT    C137713   0.985   1.045   6.019
 8235X2IT    H137714   1.071   1.062   5.954
 8235X2IT   C1137715   0.858   0.991   5.957
 8235X2IT    O337716   0.902   0.887   5.871
 8235X2IT   C1537717   0.805   0.791   5.827
 8236X2IT   H1837718   6.179   4.328  -0.252
 8236X2IT    N437719   6.268   4.302  -0.214
 8236X2IT   H1737720   6.350   4.327  -0.268
 8236X2IT   C1437721   6.278   4.297  -0.078
 8236X2IT    O537722   6.183   4.293  -0.001
 8236X2IT    O437723   6.409   4.292  -0.041
 8236X2IT   C1337724   6.434   4.279   0.101
 8236X2IT   C1037725   6.425   4.132   0.147
 8236X2IT    C937726   6.458   4.114   0.293
 8236X2IT    C437727   6.563   4.026   0.308
 8236X2IT    C537728   6.622   3.986   0.440
 8236X2IT    O137729   6.714   3.903   0.444
 8236X2IT    C637730   6.564   4.048   0.557
 8236X2IT   C1237731   6.618   4.012   0.694
 8236X2IT    C737732   6.457   4.135   0.543
 8236X2IT    C837733   6.398   4.174   0.407
 8236X2IT    O237734   6.306   4.257   0.405
 8236X2IT    N337735   6.396   4.196   0.645
 8236X2IT   H1537736   6.423   4.183   0.741
 8236X2IT   H1637737   6.319   4.260   0.623
 8236X2IT    N237738   6.603   3.973   0.189
 8236X2IT    C337739   6.739   3.934   0.148
 8236X2IT    C237740   6.763   4.024   0.027
 8236X2IT    H237741   6.840   3.997  -0.045
 8236X2IT    N137742   6.737   4.166   0.056
 8236X2IT   H1437743   6.786   4.225  -0.012
 8236X2IT    C137744   6.635   4.086  -0.015
 8236X2IT    H137745   6.610   4.107  -0.118
 8236X2IT   C1137746   6.525   4.033   0.077
 8236X2IT    O337747   6.460   3.935  -0.001
 8236X2IT   C1537748   6.378   3.840   0.068
 8237X2IT   H1837749   1.667   5.497   7.246
 8237X2IT    N437750   1.753   5.483   7.195
 8237X2IT   H1737751   1.783   5.557   7.134
 8237X2IT   C1437752   1.847   5.404   7.256
 8237X2IT    O537753   1.826   5.329   7.350
 8237X2IT    O437754   1.967   5.418   7.192
 8237X2IT   C1337755   2.074   5.335   7.241
 8237X2IT   C1037756   2.069   5.194   7.180
 8237X2IT    C937757   2.184   5.106   7.224
 8237X2IT    C437758   2.255   5.061   7.114
 8237X2IT    C537759   2.376   4.973   7.121
 8237X2IT    O137760   2.430   4.935   7.017
 8237X2IT    C637761   2.420   4.936   7.254
 8237X2IT   C1237762   2.542   4.847   7.269
 8237X2IT    C737763   2.349   4.980   7.364
 8237X2IT    C837764   2.225   5.069   7.354
 8237X2IT    O237765   2.172   5.106   7.460
 8237X2IT    N337766   2.381   4.949   7.491
 8237X2IT   H1537767   2.461   4.893   7.515
 8237X2IT   H1637768   2.323   4.989   7.565
 8237X2IT    N237769   2.197   5.101   6.997
 8237X2IT    C337770   2.264   5.134   6.870
 8237X2IT    C237771   2.221   5.279   6.849
 8237X2IT    H237772   2.226   5.322   6.749
 8237X2IT    N137773   2.248   5.364   6.967
 8237X2IT   H1437774   2.251   5.462   6.938
 8237X2IT    C137775   2.111   5.313   6.943
 8237X2IT    H137776   2.030   5.380   6.918
 8237X2IT   C1137777   2.079   5.188   7.023
 8237X2IT    O337778   1.961   5.137   6.962
 8237X2IT   C1537779   1.927   5.000   6.990
 8238X2IT   H1837780   9.467   3.725   6.350
 8238X2IT    N437781   9.482   3.670   6.433
 8238X2IT   H1737782   9.577   3.646   6.457
 8238X2IT   C1437783   9.391   3.688   6.534
 8238X2IT    O537784   9.282   3.741   6.521
 8238X2IT    O437785   9.438   3.633   6.650
 8238X2IT   C1337786   9.350   3.639   6.763
 8238X2IT   C1037787   9.249   3.523   6.761
 8238X2IT    C937788   9.158   3.520   6.883
 8238X2IT    C437789   9.171   3.400   6.949
 8238X2IT    C537790   9.096   3.365   7.074
 8238X2IT    O137791   9.110   3.253   7.125
 8238X2IT    C637792   9.009   3.467   7.128
 8238X2IT   C1237793   8.930   3.439   7.254
 8238X2IT    C737794   8.995   3.587   7.060
 8238X2IT    C837795   9.072   3.621   6.932
 8238X2IT    O237796   9.056   3.734   6.883
 8238X2IT    N337797   8.916   3.687   7.101
 8238X2IT   H1537798   8.860   3.683   7.184
 8238X2IT   H1637799   8.915   3.772   7.044
 8238X2IT    N237800   9.253   3.314   6.884
 8238X2IT    C337801   9.342   3.212   6.942
 8238X2IT    C237802   9.479   3.257   6.891
 8238X2IT    H237803   9.561   3.186   6.889
 8238X2IT    N137804   9.506   3.399   6.920
 8238X2IT   H1437805   9.607   3.416   6.918
 8238X2IT    C137806   9.461   3.359   6.785
 8238X2IT    H137807   9.527   3.369   6.700
 8238X2IT   C1137808   9.312   3.378   6.763
 8238X2IT    O337809   9.285   3.305   6.645
 8238X2IT   C1537810   9.148   3.271   6.619
 8239X2IT   H1837811   6.822   7.250   0.472
 8239X2IT    N437812   6.913   7.209   0.472
 8239X2IT   H1737813   6.934   7.143   0.545
 8239X2IT   C1437814   6.974   7.195   0.351
 8239X2IT    O537815   6.941   7.251   0.248
 8239X2IT    O437816   7.082   7.112   0.362
 8239X2IT   C1337817   7.160   7.092   0.243
 8239X2IT   C1037818   7.262   7.206   0.223
 8239X2IT    C937819   7.351   7.186   0.103
 8239X2IT    C437820   7.484   7.184   0.141
 8239X2IT    C537821   7.599   7.165   0.046
 8239X2IT    O137822   7.715   7.169   0.089
 8239X2IT    C637823   7.565   7.145  -0.093
 8239X2IT   C1237824   7.676   7.125  -0.194
 8239X2IT    C737825   7.432   7.148  -0.131
 8239X2IT    C837826   7.316   7.168  -0.033
 8239X2IT    O237827   7.201   7.164  -0.078
 8239X2IT    N337828   7.391   7.132  -0.258
 8239X2IT   H1537829   7.454   7.116  -0.335
 8239X2IT   H1637830   7.290   7.134  -0.275
 8239X2IT    N237831   7.499   7.209   0.274
 8239X2IT    C337832   7.602   7.156   0.365
 8239X2IT    C237833   7.517   7.083   0.469
 8239X2IT    H237834   7.560   7.061   0.567
 8239X2IT    N137835   7.422   6.988   0.407
 8239X2IT   H1437836   7.393   6.918   0.476
 8239X2IT    C137837   7.375   7.121   0.452
 8239X2IT    H137838   7.306   7.130   0.535
 8239X2IT   C1137839   7.367   7.223   0.340
 8239X2IT    O337840   7.354   7.347   0.408
 8239X2IT   C1537841   7.382   7.466   0.332
 8240X2IT   H1837842   2.325   4.645  -0.217
 8240X2IT    N437843   2.412   4.608  -0.182
 8240X2IT   H1737844   2.477   4.572  -0.250
 8240X2IT   C1437845   2.460   4.666  -0.068
 8240X2IT    O537846   2.396   4.735   0.009
 8240X2IT    O437847   2.591   4.630  -0.050
 8240X2IT   C1337848   2.654   4.678   0.070
 8240X2IT   C1037849   2.622   4.587   0.191
 8240X2IT    C937850   2.692   4.630   0.318
 8240X2IT    C437851   2.771   4.527   0.366
 8240X2IT    C537852   2.855   4.537   0.490
 8240X2IT    O137853   2.920   4.439   0.528
 8240X2IT    C637854   2.853   4.664   0.559
 8240X2IT   C1237855   2.936   4.681   0.685
 8240X2IT    C737856   2.773   4.766   0.511
 8240X2IT    C837857   2.688   4.755   0.385
 8240X2IT    O237858   2.623   4.854   0.349
 8240X2IT    N337859   2.763   4.887   0.570
 8240X2IT   H1537860   2.814   4.912   0.653
 8240X2IT   H1637861   2.702   4.955   0.525
 8240X2IT    N237862   2.758   4.414   0.292
 8240X2IT    C337863   2.861   4.312   0.264
 8240X2IT    C237864   2.869   4.316   0.112
 8240X2IT    H237865   2.911   4.231   0.058
 8240X2IT    N137866   2.890   4.453   0.060
 8240X2IT   H1437867   2.929   4.448  -0.035
 8240X2IT    C137868   2.754   4.394   0.058
 8240X2IT    H137869   2.706   4.371  -0.036
 8240X2IT   C1137870   2.668   4.437   0.176
 8240X2IT    O337871   2.560   4.346   0.174
 8240X2IT   C1537872   2.481   4.335   0.293
 8241X2IT   H1837873   0.808   2.595   0.627
 8241X2IT    N437874   0.804   2.517   0.563
 8241X2IT   H1737875   0.768   2.536   0.471
 8241X2IT   C1437876   0.899   2.421   0.579
 8241X2IT    O537877   0.969   2.406   0.678
 8241X2IT    O437878   0.902   2.340   0.469
 8241X2IT   C1337879   0.994   2.228   0.475
 8241X2IT   C1037880   0.933   2.109   0.550
 8241X2IT    C937881   1.023   1.987   0.552
 8241X2IT    C437882   0.958   1.879   0.495
 8241X2IT    C537883   1.020   1.743   0.481
 8241X2IT    O137884   0.954   1.651   0.432
 8241X2IT    C637885   1.156   1.729   0.527
 8241X2IT   C1237886   1.225   1.594   0.515
 8241X2IT    C737887   1.220   1.837   0.584
 8241X2IT    C837888   1.156   1.975   0.600
 8241X2IT    O237889   1.224   2.066   0.649
 8241X2IT    N337890   1.346   1.833   0.632
 8241X2IT   H1537891   1.403   1.750   0.628
 8241X2IT   H1637892   1.384   1.919   0.671
 8241X2IT    N237893   0.830   1.908   0.461
 8241X2IT    C337894   0.752   1.855   0.348
 8241X2IT    C237895   0.718   1.981   0.271
 8241X2IT    H237896   0.634   1.980   0.201
 8241X2IT    N137897   0.838   2.063   0.241
 8241X2IT   H1437898   0.818   2.125   0.162
 8241X2IT    C137899   0.749   2.100   0.354
 8241X2IT    H137900   0.691   2.191   0.350
 8241X2IT   C1137901   0.800   2.051   0.489
 8241X2IT    O337902   0.688   2.066   0.574
 8241X2IT   C1537903   0.690   1.994   0.698
 8242X2IT   H1837904   6.634   1.163  -0.461
 8242X2IT    N437905   6.637   1.072  -0.419
 8242X2IT   H1737906   6.674   0.997  -0.475
 8242X2IT   C1437907   6.653   1.068  -0.283
 8242X2IT    O537908   6.637   1.162  -0.207
 8242X2IT    O437909   6.686   0.941  -0.244
 8242X2IT   C1337910   6.700   0.920  -0.102
 8242X2IT   C1037911   6.564   0.895  -0.036
 8242X2IT    C937912   6.575   0.865   0.112
 8242X2IT    C437913   6.519   0.742   0.141
 8242X2IT    C537914   6.514   0.681   0.278
 8242X2IT    O137915   6.459   0.572   0.295
 8242X2IT    C637916   6.575   0.758   0.384
 8242X2IT   C1237917   6.574   0.703   0.525
 8242X2IT    C737918   6.630   0.882   0.356
 8242X2IT    C837919   6.634   0.942   0.216
 8242X2IT    O237920   6.690   1.052   0.201
 8242X2IT    N337921   6.687   0.961   0.448
 8242X2IT   H1537922   6.695   0.935   0.545
 8242X2IT   H1637923   6.726   1.050   0.416
 8242X2IT    N237924   6.462   0.685   0.031
 8242X2IT    C337925   6.453   0.542  -0.002
 8242X2IT    C237926   6.528   0.535  -0.135
 8242X2IT    H237927   6.511   0.451  -0.202
 8242X2IT    N137928   6.662   0.597  -0.127
 8242X2IT   H1437929   6.720   0.561  -0.203
 8242X2IT    C137930   6.550   0.673  -0.187
 8242X2IT    H137931   6.549   0.697  -0.292
 8242X2IT   C1137932   6.484   0.770  -0.089
 8242X2IT    O337933   6.363   0.805  -0.153
 8242X2IT   C1537934   6.261   0.865  -0.071
 8243X2IT   H1837935   4.558   4.439   6.269
 8243X2IT    N437936   4.459   4.452   6.279
 8243X2IT   H1737937   4.416   4.413   6.361
 8243X2IT   C1437938   4.407   4.566   6.223
 8243X2IT    O537939   4.463   4.636   6.141
 8243X2IT    O437940   4.280   4.586   6.270
 8243X2IT   C1337941   4.210   4.700   6.215
 8243X2IT   C1037942   4.144   4.665   6.081
 8243X2IT    C937943   4.064   4.779   6.023
 8243X2IT    C437944   3.932   4.740   6.004
 8243X2IT    C537945   3.825   4.829   5.948
 8243X2IT    O137946   3.711   4.784   5.931
 8243X2IT    C637947   3.864   4.965   5.918
 8243X2IT   C1237948   3.761   5.061   5.862
 8243X2IT    C737949   3.996   5.004   5.936
 8243X2IT    C837950   4.104   4.911   5.992
 8243X2IT    O237951   4.218   4.958   6.008
 8243X2IT    N337952   4.041   5.127   5.909
 8243X2IT   H1537953   3.983   5.201   5.874
 8243X2IT   H1637954   4.140   5.145   5.928
 8243X2IT    N237955   3.914   4.608   6.033
 8243X2IT    C337956   3.793   4.545   6.088
 8243X2IT    C237957   3.846   4.485   6.218
 8243X2IT    H237958   3.791   4.404   6.266
 8243X2IT    N137959   3.918   4.584   6.301
 8243X2IT   H1437960   3.920   4.552   6.398
 8243X2IT    C137961   3.994   4.489   6.218
 8243X2IT    H137962   4.056   4.413   6.264
 8243X2IT   C1137963   4.039   4.548   6.085
 8243X2IT    O337964   4.079   4.435   6.009
 8243X2IT   C1537965   4.090   4.452   5.867
 8244X2IT   H1837966   3.377   4.388   6.194
 8244X2IT    N437967   3.285   4.390   6.153
 8244X2IT   H1737968   3.254   4.306   6.106
 8244X2IT   C1437969   3.193   4.470   6.215
 8244X2IT    O537970   3.218   4.558   6.295
 8244X2IT    O437971   3.068   4.439   6.170
 8244X2IT   C1337972   2.960   4.521   6.221
 8244X2IT   C1037973   2.946   4.652   6.143
 8244X2IT    C937974   2.830   4.737   6.189
 8244X2IT    C437975   2.744   4.761   6.084
 8244X2IT    C537976   2.617   4.842   6.096
 8244X2IT    O137977   2.548   4.861   5.996
 8244X2IT    C637978   2.586   4.893   6.228
 8244X2IT   C1237979   2.460   4.974   6.247
 8244X2IT    C737980   2.673   4.869   6.333
 8244X2IT    C837981   2.802   4.788   6.319
 8244X2IT    O237982   2.870   4.769   6.420
 8244X2IT    N337983   2.653   4.914   6.457
 8244X2IT   H1537984   2.573   4.968   6.485
 8244X2IT   H1637985   2.724   4.890   6.528
 8244X2IT    N237986   2.790   4.710   5.967
 8244X2IT    C337987   2.712   4.656   5.855
 8244X2IT    C237988   2.764   4.513   5.847
 8244X2IT    H237989   2.751   4.456   5.755
 8244X2IT    N137990   2.758   4.443   5.977
 8244X2IT   H1437991   2.760   4.342   5.962
 8244X2IT    C137992   2.886   4.500   5.930
 8244X2IT    H137993   2.969   4.435   5.903
 8244X2IT   C1137994   2.917   4.636   5.989
 8244X2IT    O337995   3.022   4.686   5.908
 8244X2IT   C1537996   3.047   4.827   5.913
 8245X2IT   H1837997   2.057   0.869   6.646
 8245X2IT    N437998   2.006   0.812   6.713
 8245X2IT   H1737999   1.970   0.724   6.680
 8245X2IT   C1438000   2.044   0.824   6.843
 8245X2IT    O538001   2.111   0.915   6.889
 8245X2IT    O438002   1.991   0.722   6.917
 8245X2IT   C1338003   2.017   0.726   7.059
 8245X2IT   C1038004   1.917   0.817   7.132
 8245X2IT    C938005   1.937   0.818   7.282
 8245X2IT    C438006   1.820   0.779   7.345
 8245X2IT    C538007   1.806   0.768   7.494
 8245X2IT    O138008   1.696   0.736   7.543
 8245X2IT    C638009   1.923   0.799   7.573
 8245X2IT   C1238010   1.915   0.789   7.724
 8245X2IT    C738011   2.039   0.839   7.509
 8245X2IT    C838012   2.052   0.850   7.357
 8245X2IT    O238013   2.162   0.883   7.311
 8245X2IT    N338014   2.152   0.871   7.574
 8245X2IT   H1538015   2.161   0.867   7.674
 8245X2IT   H1638016   2.232   0.898   7.517
 8245X2IT    N238017   1.719   0.759   7.257
 8245X2IT    C338018   1.609   0.661   7.267
 8245X2IT    C238019   1.629   0.578   7.141
 8245X2IT    H238020   1.547   0.519   7.101
 8245X2IT    N138021   1.768   0.527   7.129
 8245X2IT   H1438022   1.769   0.446   7.066
 8245X2IT    C138023   1.726   0.646   7.052
 8245X2IT    H138024   1.720   0.642   6.944
 8245X2IT   C1138025   1.766   0.777   7.117
 8245X2IT    O338026   1.689   0.875   7.048
 8245X2IT   C1538027   1.674   1.003   7.111
 8246X2IT   H1838028   6.135   5.006   0.575
 8246X2IT    N438029   6.191   4.956   0.508
 8246X2IT   H1738030   6.176   4.856   0.502
 8246X2IT   C1438031   6.229   5.025   0.397
 8246X2IT    O538032   6.225   5.146   0.384
 8246X2IT    O438033   6.276   4.938   0.302
 8246X2IT   C1338034   6.326   4.998   0.181
 8246X2IT   C1038035   6.472   5.045   0.197
 8246X2IT    C938036   6.530   5.102   0.070
 8246X2IT    C438037   6.644   5.031   0.034
 8246X2IT    C538038   6.726   5.061  -0.088
 8246X2IT    O138039   6.828   4.995  -0.111
 8246X2IT    C638040   6.679   5.169  -0.172
 8246X2IT   C1238041   6.757   5.204  -0.297
 8246X2IT    C738042   6.567   5.240  -0.136
 8246X2IT    C838043   6.484   5.209  -0.011
 8246X2IT    O238044   6.382   5.276   0.010
 8246X2IT    N338045   6.517   5.342  -0.206
 8246X2IT   H1538046   6.557   5.375  -0.292
 8246X2IT   H1638047   6.432   5.387  -0.171
 8246X2IT    N238048   6.676   4.937   0.126
 8246X2IT    C338049   6.739   4.806   0.102
 8246X2IT    C238050   6.634   4.709   0.157
 8246X2IT    H238051   6.663   4.608   0.185
 8246X2IT    N138052   6.500   4.734   0.100
 8246X2IT   H1438053   6.443   4.650   0.110
 8246X2IT    C138054   6.533   4.786   0.235
 8246X2IT    H138055   6.484   4.746   0.322
 8246X2IT   C1138056   6.575   4.932   0.235
 8246X2IT    O338057   6.633   4.951   0.362
 8246X2IT   C1538058   6.717   5.066   0.380
 8247X2IT   H1838059   3.837   5.462   5.790
 8247X2IT    N438060   3.800   5.526   5.859
 8247X2IT   H1738061   3.739   5.599   5.826
 8247X2IT   C1438062   3.781   5.475   5.985
 8247X2IT    O538063   3.830   5.371   6.027
 8247X2IT    O438064   3.704   5.560   6.058
 8247X2IT   C1338065   3.681   5.523   6.196
 8247X2IT   C1038066   3.798   5.566   6.286
 8247X2IT    C938067   3.775   5.535   6.432
 8247X2IT    C438068   3.782   5.651   6.507
 8247X2IT    C538069   3.763   5.656   6.656
 8247X2IT    O138070   3.775   5.764   6.716
 8247X2IT    C638071   3.733   5.531   6.721
 8247X2IT   C1238072   3.712   5.528   6.871
 8247X2IT    C738073   3.727   5.415   6.646
 8247X2IT    C838074   3.747   5.411   6.494
 8247X2IT    O238075   3.735   5.302   6.436
 8247X2IT    N338076   3.701   5.294   6.698
 8247X2IT   H1538077   3.683   5.278   6.795
 8247X2IT   H1638078   3.698   5.215   6.632
 8247X2IT    N238079   3.816   5.759   6.432
 8247X2IT    C338080   3.773   5.899   6.449
 8247X2IT    C238081   3.703   5.928   6.317
 8247X2IT    H238082   3.689   6.031   6.285
 8247X2IT    N138083   3.600   5.826   6.285
 8247X2IT   H1438084   3.534   5.865   6.218
 8247X2IT    C138085   3.733   5.819   6.221
 8247X2IT    H138086   3.744   5.836   6.114
 8247X2IT   C1138087   3.828   5.721   6.288
 8247X2IT    O338088   3.955   5.754   6.235
 8247X2IT   C1538089   4.070   5.707   6.306
 8248X2IT   H1838090   9.403   7.792  -0.266
 8248X2IT    N438091   9.380   7.723  -0.198
 8248X2IT   H1738092   9.387   7.626  -0.226
 8248X2IT   C1438093   9.403   7.755  -0.067
 8248X2IT    O538094   9.423   7.868  -0.026
 8248X2IT    O438095   9.398   7.644   0.011
 8248X2IT   C1338096   9.414   7.664   0.153
 8248X2IT   C1038097   9.282   7.706   0.219
 8248X2IT    C938098   9.294   7.722   0.369
 8248X2IT    C438099   9.204   7.638   0.433
 8248X2IT    C538100   9.190   7.629   0.582
 8248X2IT    O138101   9.104   7.554   0.631
 8248X2IT    C638102   9.279   7.711   0.661
 8248X2IT   C1238103   9.271   7.705   0.812
 8248X2IT    C738104   9.368   7.795   0.597
 8248X2IT    C838105   9.381   7.804   0.444
 8248X2IT    O238106   9.467   7.880   0.398
 8248X2IT    N338107   9.454   7.876   0.661
 8248X2IT   H1538108   9.460   7.881   0.761
 8248X2IT   H1638109   9.517   7.933   0.603
 8248X2IT    N238110   9.125   7.572   0.345
 8248X2IT    C338111   9.068   7.437   0.359
 8248X2IT    C238112   9.128   7.365   0.238
 8248X2IT    H238113   9.080   7.274   0.200
 8248X2IT    N138114   9.275   7.380   0.230
 8248X2IT   H1438115   9.313   7.305   0.172
 8248X2IT    C138116   9.188   7.465   0.146
 8248X2IT    H138117   9.188   7.455   0.038
 8248X2IT   C1138118   9.164   7.603   0.205
 8248X2IT    O338119   9.055   7.654   0.130
 8248X2IT   C1538120   8.984   7.765   0.185
 8249X2IT   H1838121   9.479   5.108   0.366
 8249X2IT    N438122   9.383   5.138   0.370
 8249X2IT   H1738123   9.364   5.235   0.348
 8249X2IT   C1438124   9.289   5.044   0.340
 8249X2IT    O538125   9.308   4.923   0.337
 8249X2IT    O438126   9.168   5.104   0.319
 8249X2IT   C1338127   9.057   5.015   0.294
 8249X2IT   C1038128   8.997   4.961   0.425
 8249X2IT    C938129   8.875   4.873   0.402
 8249X2IT    C438130   8.766   4.925   0.470
 8249X2IT    C538131   8.630   4.863   0.468
 8249X2IT    O138132   8.538   4.914   0.535
 8249X2IT    C638133   8.614   4.744   0.388
 8249X2IT   C1238134   8.479   4.676   0.382
 8249X2IT    C738135   8.723   4.692   0.322
 8249X2IT    C838136   8.862   4.756   0.325
 8249X2IT    O238137   8.952   4.703   0.258
 8249X2IT    N338138   8.719   4.581   0.246
 8249X2IT   H1538139   8.635   4.527   0.232
 8249X2IT   H1638140   8.806   4.552   0.200
 8249X2IT    N238141   8.799   5.034   0.544
 8249X2IT    C338142   8.715   5.151   0.574
 8249X2IT    C238143   8.797   5.265   0.514
 8249X2IT    H238144   8.779   5.368   0.548
 8249X2IT    N138145   8.834   5.240   0.374
 8249X2IT   H1438146   8.857   5.329   0.328
 8249X2IT    C138147   8.933   5.216   0.481
 8249X2IT    H138148   9.022   5.278   0.489
 8249X2IT   C1138149   8.942   5.071   0.524
 8249X2IT    O338150   9.013   5.075   0.646
 8249X2IT   C1538151   9.005   4.959   0.731
 8250X2IT   H1838152   0.799   7.231   6.124
 8250X2IT    N438153   0.786   7.208   6.027
 8250X2IT   H1738154   0.697   7.170   6.000
 8250X2IT   C1438155   0.857   7.282   5.937
 8250X2IT    O538156   0.953   7.353   5.964
 8250X2IT    O438157   0.809   7.262   5.811
 8250X2IT   C1338158   0.879   7.329   5.704
 8250X2IT   C1038159   1.003   7.250   5.659
 8250X2IT    C938160   1.075   7.314   5.543
 8250X2IT    C438161   1.081   7.225   5.437
 8250X2IT    C538162   1.146   7.258   5.305
 8250X2IT    O138163   1.150   7.171   5.216
 8250X2IT    C638164   1.201   7.390   5.291
 8250X2IT   C1238165   1.267   7.429   5.160
 8250X2IT    C738166   1.195   7.478   5.397
 8250X2IT    C838167   1.130   7.444   5.531
 8250X2IT    O238168   1.126   7.532   5.619
 8250X2IT    N338169   1.245   7.603   5.394
 8250X2IT   H1538170   1.289   7.642   5.313
 8250X2IT   H1638171   1.234   7.660   5.478
 8250X2IT    N238172   1.030   7.104   5.468
 8250X2IT    C338173   0.959   7.010   5.379
 8250X2IT    C238174   0.823   6.998   5.448
 8250X2IT    H238175   0.760   6.912   5.427
 8250X2IT    N138176   0.762   7.130   5.475
 8250X2IT   H1438177   0.661   7.118   5.488
 8250X2IT    C138178   0.831   7.057   5.584
 8250X2IT    H138179   0.776   7.019   5.668
 8250X2IT   C1138180   0.974   7.104   5.606
 8250X2IT    O338181   1.031   7.003   5.687
 8250X2IT   C1538182   1.174   6.998   5.693
 8251X2IT   H1838183   0.417   3.373   5.915
 8251X2IT    N438184   0.408   3.449   5.979
 8251X2IT   H1738185   0.370   3.536   5.943
 8251X2IT   C1438186   0.386   3.416   6.110
 8251X2IT    O538187   0.404   3.306   6.159
 8251X2IT    O438188   0.345   3.526   6.180
 8251X2IT   C1338189   0.325   3.508   6.322
 8251X2IT   C1038190   0.457   3.519   6.399
 8251X2IT    C938191   0.439   3.507   6.549
 8251X2IT    C438192   0.488   3.620   6.612
 8251X2IT    C538193   0.485   3.641   6.761
 8251X2IT    O138194   0.534   3.744   6.809
 8251X2IT    C638195   0.423   3.536   6.839
 8251X2IT   C1238196   0.416   3.551   6.990
 8251X2IT    C738197   0.375   3.423   6.776
 8251X2IT    C838198   0.380   3.403   6.625
 8251X2IT    O238199   0.330   3.299   6.578
 8251X2IT    N338200   0.319   3.320   6.841
 8251X2IT   H1538201   0.306   3.318   6.940
 8251X2IT   H1638202   0.285   3.242   6.784
 8251X2IT    N238203   0.546   3.706   6.525
 8251X2IT    C338204   0.550   3.853   6.532
 8251X2IT    C238205   0.480   3.893   6.402
 8251X2IT    H238206   0.496   3.993   6.361
 8251X2IT    N138207   0.349   3.826   6.386
 8251X2IT   H1438208   0.292   3.880   6.320
 8251X2IT    C138209   0.467   3.774   6.315
 8251X2IT    H138210   0.473   3.779   6.207
 8251X2IT   C1138211   0.533   3.656   6.385
 8251X2IT    O338212   0.659   3.644   6.321
 8251X2IT   C1538213   0.759   3.568   6.389
 8252X2IT   H1838214   4.933   8.098  -0.004
 8252X2IT    N438215   4.960   8.014   0.043
 8252X2IT   H1738216   4.985   7.935  -0.015
 8252X2IT   C1438217   5.018   8.028   0.166
 8252X2IT    O538218   5.016   8.129   0.234
 8252X2IT    O438219   5.076   7.910   0.203
 8252X2IT   C1338220   5.137   7.908   0.334
 8252X2IT   C1038221   5.032   7.880   0.444
 8252X2IT    C938222   5.092   7.870   0.582
 8252X2IT    C438223   5.063   7.748   0.638
 8252X2IT    C538224   5.109   7.705   0.775
 8252X2IT    O138225   5.074   7.594   0.819
 8252X2IT    C638226   5.190   7.799   0.848
 8252X2IT   C1238227   5.240   7.762   0.986
 8252X2IT    C738228   5.219   7.922   0.792
 8252X2IT    C838229   5.171   7.964   0.653
 8252X2IT    O238230   5.206   8.076   0.611
 8252X2IT    N338231   5.293   8.016   0.853
 8252X2IT   H1538232   5.333   8.004   0.944
 8252X2IT   H1638233   5.309   8.103   0.801
 8252X2IT    N238234   4.982   7.673   0.559
 8252X2IT    C338235   4.979   7.527   0.544
 8252X2IT    C238236   5.009   7.509   0.395
 8252X2IT    H238237   4.982   7.416   0.346
 8252X2IT    N138238   5.130   7.582   0.353
 8252X2IT   H1438239   5.166   7.542   0.266
 8252X2IT    C138240   4.997   7.641   0.327
 8252X2IT    H138241   4.961   7.651   0.226
 8252X2IT   C1138242   4.955   7.744   0.431
 8252X2IT    O338243   4.816   7.761   0.407
 8252X2IT   C1538244   4.739   7.822   0.512
 8253X2IT   H1838245   4.681   2.309   5.957
 8253X2IT    N438246   4.666   2.257   6.041
 8253X2IT   H1738247   4.585   2.195   6.043
 8253X2IT   C1438248   4.777   2.224   6.114
 8253X2IT    O538249   4.887   2.275   6.101
 8253X2IT    O438250   4.745   2.130   6.207
 8253X2IT   C1338251   4.851   2.090   6.296
 8253X2IT   C1038252   4.865   2.188   6.414
 8253X2IT    C938253   4.971   2.146   6.514
 8253X2IT    C438254   4.916   2.132   6.639
 8253X2IT    C538255   4.993   2.090   6.761
 8253X2IT    O138256   4.936   2.084   6.871
 8253X2IT    C638257   5.133   2.062   6.741
 8253X2IT   C1238258   5.217   2.019   6.860
 8253X2IT    C738259   5.189   2.077   6.616
 8253X2IT    C838260   5.109   2.120   6.493
 8253X2IT    O238261   5.169   2.127   6.384
 8253X2IT    N338262   5.319   2.055   6.588
 8253X2IT   H1538263   5.385   2.024   6.657
 8253X2IT   H1638264   5.349   2.068   6.492
 8253X2IT    N238265   4.785   2.167   6.642
 8253X2IT    C338266   4.677   2.110   6.724
 8253X2IT    C238267   4.580   2.058   6.619
 8253X2IT    H238268   4.476   2.040   6.646
 8253X2IT    N138269   4.646   1.970   6.520
 8253X2IT   H1438270   4.576   1.911   6.474
 8253X2IT    C138271   4.618   2.111   6.486
 8253X2IT    H138272   4.545   2.136   6.409
 8253X2IT   C1138273   4.738   2.203   6.505
 8253X2IT    O338274   4.682   2.333   6.501
 8253X2IT   C1538275   4.762   2.440   6.554
 8254X2IT   H1838276   0.931   6.358   0.511
 8254X2IT    N438277   1.025   6.331   0.534
 8254X2IT   H1738278   1.100   6.382   0.490
 8254X2IT   C1438279   1.044   6.279   0.659
 8254X2IT    O538280   0.956   6.239   0.732
 8254X2IT    O438281   1.177   6.275   0.688
 8254X2IT   C1338282   1.213   6.216   0.815
 8254X2IT   C1038283   1.220   6.063   0.806
 8254X2IT    C938284   1.264   5.998   0.935
 8254X2IT    C438285   1.378   5.922   0.914
 8254X2IT    C538286   1.448   5.844   1.021
 8254X2IT    O138287   1.547   5.776   0.993
 8254X2IT    C638288   1.393   5.855   1.154
 8254X2IT   C1238289   1.459   5.779   1.268
 8254X2IT    C738290   1.279   5.930   1.175
 8254X2IT    C838291   1.207   6.007   1.064
 8254X2IT    O238292   1.108   6.075   1.095
 8254X2IT    N338293   1.219   5.943   1.295
 8254X2IT   H1538294   1.254   5.901   1.379
 8254X2IT   H1638295   1.136   6.003   1.299
 8254X2IT    N238296   1.414   5.919   0.783
 8254X2IT    C338297   1.549   5.911   0.726
 8254X2IT    C238298   1.558   6.039   0.644
 8254X2IT    H238299   1.631   6.048   0.565
 8254X2IT    N138300   1.521   6.159   0.723
 8254X2IT   H1438301   1.560   6.242   0.679
 8254X2IT    C138302   1.422   6.099   0.632
 8254X2IT    H138303   1.389   6.152   0.543
 8254X2IT   C1138304   1.324   6.006   0.702
 8254X2IT    O338305   1.263   5.935   0.596
 8254X2IT   C1538306   1.194   5.813   0.630
 8255X2IT   H1838307   4.298   3.132   0.857
 8255X2IT    N438308   4.233   3.162   0.788
 8255X2IT   H1738309   4.265   3.165   0.692
 8255X2IT   C1438310   4.101   3.135   0.812
 8255X2IT    O538311   4.054   3.103   0.920
 8255X2IT    O438312   4.028   3.152   0.698
 8255X2IT   C1338313   3.885   3.133   0.710
 8255X2IT   C1038314   3.816   3.260   0.763
 8255X2IT    C938315   3.666   3.246   0.770
 8255X2IT    C438316   3.605   3.344   0.694
 8255X2IT    C538317   3.456   3.359   0.679
 8255X2IT    O138318   3.410   3.452   0.611
 8255X2IT    C638319   3.375   3.261   0.747
 8255X2IT   C1238320   3.224   3.270   0.736
 8255X2IT    C738321   3.435   3.164   0.825
 8255X2IT    C838322   3.587   3.151   0.840
 8255X2IT    O238323   3.631   3.057   0.908
 8255X2IT    N338324   3.368   3.070   0.893
 8255X2IT   H1538325   3.268   3.063   0.893
 8255X2IT   H1638326   3.424   3.002   0.946
 8255X2IT    N238327   3.695   3.430   0.640
 8255X2IT    C338328   3.687   3.500   0.511
 8255X2IT    C238329   3.812   3.449   0.439
 8255X2IT    H238330   3.853   3.506   0.355
 8255X2IT    N138331   3.820   3.301   0.439
 8255X2IT   H1438332   3.882   3.271   0.363
 8255X2IT    C138333   3.899   3.379   0.536
 8255X2IT    H138334   4.007   3.381   0.531
 8255X2IT   C1138335   3.834   3.388   0.673
 8255X2IT    O338336   3.906   3.491   0.739
 8255X2IT   C1538337   3.845   3.551   0.854
 8256X2IT   H1838338   5.138   5.194   0.680
 8256X2IT    N438339   5.054   5.151   0.649
 8256X2IT   H1738340   4.980   5.139   0.717
 8256X2IT   C1438341   5.021   5.170   0.518
 8256X2IT    O538342   5.097   5.211   0.431
 8256X2IT    O438343   4.891   5.134   0.496
 8256X2IT   C1338344   4.844   5.143   0.360
 8256X2IT   C1038345   4.883   5.018   0.279
 8256X2IT    C938346   4.830   5.020   0.137
 8256X2IT    C438347   4.750   4.909   0.114
 8256X2IT    C538348   4.681   4.881  -0.016
 8256X2IT    O138349   4.615   4.777  -0.029
 8256X2IT    C638350   4.698   4.980  -0.120
 8256X2IT   C1238351   4.630   4.958  -0.254
 8256X2IT    C738352   4.778   5.090  -0.097
 8256X2IT    C838353   4.848   5.117   0.036
 8256X2IT    O238354   4.914   5.222   0.046
 8256X2IT    N338355   4.801   5.186  -0.189
 8256X2IT   H1538356   4.760   5.185  -0.281
 8256X2IT   H1638357   4.860   5.264  -0.160
 8256X2IT    N238358   4.749   4.825   0.220
 8256X2IT    C338359   4.639   4.739   0.266
 8256X2IT    C238360   4.614   4.791   0.408
 8256X2IT    H238361   4.563   4.728   0.480
 8256X2IT    N138362   4.596   4.937   0.411
 8256X2IT   H1438363   4.547   4.963   0.497
 8256X2IT    C138364   4.727   4.879   0.448
 8256X2IT    H138365   4.764   4.885   0.549
 8256X2IT   C1138366   4.827   4.881   0.334
 8256X2IT    O338367   4.930   4.793   0.377
 8256X2IT   C1538368   5.020   4.744   0.276
 8257X2IT   H1838369   3.967   1.979   1.175
 8257X2IT    N438370   4.010   2.034   1.103
 8257X2IT   H1738371   4.072   2.108   1.133
 8257X2IT   C1438372   4.034   1.970   0.984
 8257X2IT    O538373   3.984   1.865   0.949
 8257X2IT    O438374   4.120   2.045   0.908
 8257X2IT   C1338375   4.150   1.993   0.777
 8257X2IT   C1038376   4.041   2.032   0.675
 8257X2IT    C938377   4.071   1.985   0.535
 8257X2IT    C438378   4.075   2.093   0.448
 8257X2IT    C538379   4.103   2.082   0.301
 8257X2IT    O138380   4.100   2.184   0.231
 8257X2IT    C638381   4.132   1.950   0.251
 8257X2IT   C1238382   4.162   1.932   0.104
 8257X2IT    C738383   4.128   1.842   0.337
 8257X2IT    C838384   4.097   1.855   0.487
 8257X2IT    O238385   4.101   1.751   0.555
 8257X2IT    N338386   4.151   1.716   0.299
 8257X2IT   H1538387   4.174   1.690   0.205
 8257X2IT   H1638388   4.147   1.644   0.372
 8257X2IT    N238389   4.041   2.209   0.511
 8257X2IT    C338390   4.091   2.345   0.483
 8257X2IT    C238391   4.155   2.384   0.616
 8257X2IT    H238392   4.171   2.489   0.639
 8257X2IT    N138393   4.250   2.282   0.664
 8257X2IT   H1438394   4.314   2.325   0.732
 8257X2IT    C138395   4.113   2.287   0.720
 8257X2IT    H138396   4.097   2.315   0.823
 8257X2IT   C1138397   4.019   2.187   0.656
 8257X2IT    O338398   3.890   2.230   0.697
 8257X2IT   C1538399   3.778   2.180   0.623
 8258X2IT   H1838400   1.154   5.146   1.368
 8258X2IT    N438401   1.111   5.105   1.288
 8258X2IT   H1738402   1.044   5.031   1.304
 8258X2IT   C1438403   1.095   5.186   1.179
 8258X2IT    O538404   1.152   5.293   1.162
 8258X2IT    O438405   1.009   5.129   1.090
 8258X2IT   C1338406   0.988   5.200   0.967
 8258X2IT   C1038407   1.099   5.170   0.864
 8258X2IT    C938408   1.076   5.238   0.731
 8258X2IT    C438409   1.071   5.144   0.630
 8258X2IT    C538410   1.049   5.178   0.485
 8258X2IT    O138411   1.050   5.087   0.401
 8258X2IT    C638412   1.029   5.317   0.454
 8258X2IT   C1238413   1.006   5.358   0.310
 8258X2IT    C738414   1.036   5.411   0.555
 8258X2IT    C838415   1.059   5.376   0.702
 8258X2IT    O238416   1.058   5.468   0.785
 8258X2IT    N338417   1.020   5.543   0.535
 8258X2IT   H1538418   1.002   5.584   0.445
 8258X2IT   H1638419   1.025   5.604   0.617
 8258X2IT    N238420   1.096   5.019   0.675
 8258X2IT    C338421   1.040   4.892   0.626
 8258X2IT    C238422   0.970   4.838   0.750
 8258X2IT    H238423   0.946   4.731   0.757
 8258X2IT    N138424   0.877   4.937   0.810
 8258X2IT   H1438425   0.808   4.888   0.868
 8258X2IT    C138426   1.011   4.916   0.869
 8258X2IT    H138427   1.022   4.873   0.967
 8258X2IT   C1138428   1.114   5.019   0.823
 8258X2IT    O338429   1.238   4.963   0.862
 8258X2IT   C1538430   1.356   5.017   0.800
 8259X2IT   H1838431   0.321   5.953   6.986
 8259X2IT    N438432   0.350   5.885   6.919
 8259X2IT   H1738433   0.437   5.902   6.871
 8259X2IT   C1438434   0.312   5.756   6.944
 8259X2IT    O538435   0.225   5.722   7.022
 8259X2IT    O438436   0.383   5.670   6.864
 8259X2IT   C1338437   0.349   5.531   6.874
 8259X2IT   C1038438   0.227   5.496   6.787
 8259X2IT    C938439   0.192   5.349   6.789
 8259X2IT    C438440   0.195   5.297   6.661
 8259X2IT    C538441   0.166   5.154   6.628
 8259X2IT    O138442   0.168   5.117   6.509
 8259X2IT    C638443   0.137   5.067   6.739
 8259X2IT   C1238444   0.107   4.920   6.713
 8259X2IT    C738445   0.132   5.119   6.867
 8259X2IT    C838446   0.161   5.266   6.899
 8259X2IT    O238447   0.159   5.301   7.018
 8259X2IT    N338448   0.104   5.046   6.976
 8259X2IT   H1538449   0.084   4.948   6.973
 8259X2IT   H1638450   0.105   5.095   7.066
 8259X2IT    N238451   0.220   5.393   6.568
 8259X2IT    C338452   0.294   5.379   6.441
 8259X2IT    C238453   0.408   5.478   6.459
 8259X2IT    H238454   0.461   5.516   6.371
 8259X2IT    N138455   0.481   5.457   6.585
 8259X2IT   H1438456   0.574   5.499   6.578
 8259X2IT    C138457   0.380   5.564   6.576
 8259X2IT    H138458   0.409   5.669   6.581
 8259X2IT   C1138459   0.244   5.525   6.633
 8259X2IT    O338460   0.156   5.624   6.585
 8259X2IT   C1538461   0.016   5.595   6.588
 8260X2IT   H1838462   0.222   8.102   0.617
 8260X2IT    N438463   0.276   8.137   0.540
 8260X2IT   H1738464   0.376   8.128   0.546
 8260X2IT   C1438465   0.217   8.131   0.416
 8260X2IT    O538466   0.098   8.115   0.396
 8260X2IT    O438467   0.310   8.152   0.319
 8260X2IT   C1338468   0.261   8.156   0.183
 8260X2IT   C1038469   0.206   8.295   0.147
 8260X2IT    C938470   0.160   8.305   0.004
 8260X2IT    C438471   0.229   8.406  -0.061
 8260X2IT    C538472   0.207   8.442  -0.206
 8260X2IT    O138473   0.271   8.536  -0.255
 8260X2IT    C638474   0.111   8.363  -0.278
 8260X2IT   C1238475   0.085   8.394  -0.424
 8260X2IT    C738476   0.041   8.263  -0.213
 8260X2IT    C838477   0.063   8.228  -0.065
 8260X2IT    O238478  -0.001   8.133  -0.018
 8260X2IT    N338479  -0.051   8.186  -0.271
 8260X2IT   H1538480  -0.077   8.194  -0.368
 8260X2IT   H1638481  -0.095   8.114  -0.213
 8260X2IT    N238482   0.312   8.473   0.022
 8260X2IT    C338483   0.442   8.535  -0.010
 8260X2IT    C238484   0.536   8.461   0.084
 8260X2IT    H238485   0.633   8.504   0.108
 8260X2IT    N138486   0.523   8.314   0.072
 8260X2IT   H1438487   0.608   8.269   0.107
 8260X2IT    C138488   0.457   8.384   0.183
 8260X2IT    H138489   0.490   8.369   0.285
 8260X2IT   C1138490   0.310   8.413   0.158
 8260X2IT    O338491   0.276   8.508   0.258
 8260X2IT   C1538492   0.156   8.583   0.237
 8261X2IT   H1838493   7.301   2.886   6.242
 8261X2IT    N438494   7.380   2.838   6.281
 8261X2IT   H1738495   7.469   2.850   6.236
 8261X2IT   C1438496   7.377   2.815   6.416
 8261X2IT    O538497   7.278   2.823   6.486
 8261X2IT    O438498   7.501   2.777   6.460
 8261X2IT   C1338499   7.511   2.743   6.600
 8261X2IT   C1038500   7.467   2.597   6.626
 8261X2IT    C938501   7.483   2.556   6.770
 8261X2IT    C438502   7.567   2.446   6.779
 8261X2IT    C538503   7.604   2.379   6.908
 8261X2IT    O138504   7.677   2.279   6.907
 8261X2IT    C638505   7.551   2.438   7.029
 8261X2IT   C1238506   7.585   2.376   7.163
 8261X2IT    C738507   7.467   2.547   7.020
 8261X2IT    C838508   7.429   2.614   6.887
 8261X2IT    O238509   7.356   2.714   6.891
 8261X2IT    N338510   7.411   2.608   7.126
 8261X2IT   H1538511   7.427   2.578   7.221
 8261X2IT   H1638512   7.351   2.689   7.107
 8261X2IT    N238513   7.604   2.400   6.657
 8261X2IT    C338514   7.732   2.337   6.619
 8261X2IT    C238515   7.785   2.433   6.512
 8261X2IT    H238516   7.860   2.398   6.442
 8261X2IT    N138517   7.786   2.573   6.559
 8261X2IT   H1438518   7.852   2.627   6.501
 8261X2IT    C138519   7.676   2.526   6.472
 8261X2IT    H138520   7.665   2.563   6.371
 8261X2IT   C1138521   7.551   2.488   6.549
 8261X2IT    O338522   7.473   2.415   6.455
 8261X2IT   C1538523   7.368   2.333   6.507
 8262X2IT   H1838524   7.635   8.101  -0.473
 8262X2IT    N438525   7.670   8.124  -0.382
 8262X2IT   H1738526   7.642   8.213  -0.344
 8262X2IT   C1438527   7.695   8.020  -0.298
 8262X2IT    O538528   7.704   7.903  -0.331
 8262X2IT    O438529   7.712   8.066  -0.170
 8262X2IT   C1338530   7.745   7.968  -0.071
 8262X2IT   C1038531   7.896   7.937  -0.070
 8262X2IT    C938532   7.936   7.839   0.038
 8262X2IT    C438533   8.031   7.896   0.121
 8262X2IT    C538534   8.092   7.826   0.239
 8262X2IT    O138535   8.179   7.883   0.306
 8262X2IT    C638536   8.044   7.692   0.266
 8262X2IT   C1238537   8.101   7.616   0.384
 8262X2IT    C738538   7.950   7.635   0.182
 8262X2IT    C838539   7.890   7.708   0.062
 8262X2IT    O238540   7.803   7.648  -0.004
 8262X2IT    N338541   7.901   7.511   0.199
 8262X2IT   H1538542   7.929   7.451   0.274
 8262X2IT   H1638543   7.831   7.480   0.131
 8262X2IT    N238544   8.068   8.019   0.079
 8262X2IT    C338545   8.109   8.135   0.161
 8262X2IT    C238546   8.005   8.239   0.123
 8262X2IT    H238547   8.025   8.345   0.141
 8262X2IT    N138548   7.866   8.189   0.136
 8262X2IT   H1438549   7.802   8.267   0.144
 8262X2IT    C138550   7.931   8.194   0.003
 8262X2IT    H138551   7.894   8.261  -0.073
 8262X2IT   C1138552   7.990   8.060  -0.041
 8262X2IT    O338553   8.073   8.094  -0.150
 8262X2IT   C1538554   8.172   7.998  -0.189
 8263X2IT   H1838555   8.009   6.806   5.930
 8263X2IT    N438556   8.043   6.889   5.975
 8263X2IT   H1738557   8.010   6.978   5.939
 8263X2IT   C1438558   8.071   6.879   6.109
 8263X2IT    O538559   8.087   6.774   6.169
 8263X2IT    O438560   8.085   7.003   6.163
 8263X2IT   C1338561   8.122   7.007   6.303
 8263X2IT   C1038562   8.275   6.993   6.321
 8263X2IT    C938563   8.319   7.004   6.465
 8263X2IT    C438564   8.409   7.107   6.479
 8263X2IT    C538565   8.472   7.146   6.610
 8263X2IT    O138566   8.556   7.237   6.613
 8263X2IT    C638567   8.431   7.071   6.726
 8263X2IT   C1238568   8.490   7.105   6.861
 8263X2IT    C738569   8.341   6.967   6.711
 8263X2IT    C838570   8.278   6.928   6.577
 8263X2IT    O238571   8.195   6.836   6.577
 8263X2IT    N338572   8.298   6.891   6.813
 8263X2IT   H1538573   8.327   6.904   6.908
 8263X2IT   H1638574   8.230   6.817   6.791
 8263X2IT    N238575   8.441   7.164   6.360
 8263X2IT    C338576   8.475   7.305   6.334
 8263X2IT    C238577   8.366   7.346   6.235
 8263X2IT    H238578   8.382   7.433   6.171
 8263X2IT    N138579   8.231   7.314   6.284
 8263X2IT   H1438580   8.162   7.372   6.235
 8263X2IT    C138581   8.296   7.225   6.186
 8263X2IT    H138582   8.257   7.215   6.086
 8263X2IT   C1138583   8.362   7.104   6.250
 8263X2IT    O338584   8.444   7.051   6.147
 8263X2IT   C1538585   8.548   6.961   6.187
 8264X2IT   H1838586   6.036   6.039   0.498
 8264X2IT    N438587   5.943   6.066   0.524
 8264X2IT   H1738588   5.867   6.031   0.467
 8264X2IT   C1438589   5.921   6.088   0.657
 8264X2IT    O538590   6.007   6.106   0.741
 8264X2IT    O438591   5.786   6.093   0.682
 8264X2IT   C1338592   5.748   6.123   0.818
 8264X2IT   C1038593   5.749   6.274   0.845
 8264X2IT    C938594   5.702   6.310   0.984
 8264X2IT    C438595   5.593   6.395   0.978
 8264X2IT    C538596   5.522   6.449   1.098
 8264X2IT    O138597   5.427   6.527   1.083
 8264X2IT    C638598   5.570   6.405   1.227
 8264X2IT   C1238599   5.503   6.455   1.353
 8264X2IT    C738600   5.680   6.321   1.233
 8264X2IT    C838601   5.752   6.267   1.110
 8264X2IT    O238602   5.847   6.189   1.127
 8264X2IT    N338603   5.734   6.277   1.348
 8264X2IT   H1538604   5.697   6.301   1.439
 8264X2IT   H1638605   5.814   6.214   1.341
 8264X2IT    N238606   5.563   6.430   0.850
 8264X2IT    C338607   5.430   6.458   0.793
 8264X2IT    C238608   5.420   6.353   0.683
 8264X2IT    H238609   5.349   6.367   0.601
 8264X2IT    N138610   5.447   6.216   0.733
 8264X2IT   H1438611   5.407   6.148   0.669
 8264X2IT    C138612   5.553   6.291   0.661
 8264X2IT    H138613   5.587   6.258   0.564
 8264X2IT   C1138614   5.652   6.359   0.754
 8264X2IT    O338615   5.721   6.450   0.670
 8264X2IT   C1538616   5.794   6.556   0.733
   9.48825   8.49895   7.24859
