UNITED ATOM STRUCTURE FOR MOLECULE UNK
12378
    0X2IT   H18    1   3.092   2.352   2.583
    0X2IT    N4    2   3.026   2.419   2.548
    0X2IT   H17    3   3.059   2.484   2.478
    0X2IT   C14    4   2.895   2.380   2.546
    0X2IT    O5    5   2.849   2.285   2.607
    0X2IT    O4    6   2.822   2.466   2.469
    0X2IT   C13    7   2.680   2.441   2.463
    0X2IT   C10    8   2.607   2.502   2.584
    0X2IT    C9    9   2.457   2.484   2.578
    0X2IT    C4   10   2.394   2.607   2.582
    0X2IT    C5   11   2.245   2.625   2.577
    0X2IT    O1   12   2.197   2.739   2.585
    0X2IT    C6   13   2.166   2.505   2.564
    0X2IT   C12   14   2.015   2.516   2.558
    0X2IT    C7   15   2.229   2.382   2.561
    0X2IT    C8   16   2.381   2.365   2.567
    0X2IT    O2   17   2.427   2.250   2.559
    0X2IT    N3   18   2.164   2.265   2.551
    0X2IT   H15   19   2.064   2.258   2.544
    0X2IT   H16   20   2.221   2.180   2.548
    0X2IT    N2   21   2.482   2.709   2.599
    0X2IT    C3   22   2.473   2.846   2.546
    0X2IT    C2   23   2.599   2.856   2.461
    0X2IT    H2   24   2.639   2.954   2.435
    0X2IT    N1   25   2.611   2.744   2.365
    0X2IT   H14   26   2.674   2.771   2.289
    0X2IT    C1   27   2.688   2.741   2.491
    0X2IT    H1   28   2.796   2.748   2.490
    0X2IT   C11   29   2.622   2.658   2.600
    0X2IT    O3   30   2.691   2.695   2.718
    0X2IT   C15   31   2.628   2.664   2.843
    1X2IT   H18   32   2.040   0.655   3.379
    1X2IT    N4   33   1.951   0.667   3.334
    1X2IT   H17   34   1.896   0.748   3.361
    1X2IT   C14   35   1.941   0.620   3.206
    1X2IT    O5   36   2.019   0.542   3.154
    1X2IT    O4   37   1.829   0.670   3.146
    1X2IT   C13   38   1.802   0.624   3.012
    1X2IT   C10   39   1.730   0.488   3.013
    1X2IT    C9   40   1.694   0.439   2.875
    1X2IT    C4   41   1.557   0.419   2.866
    1X2IT    C5   42   1.488   0.371   2.741
    1X2IT    O1   43   1.365   0.353   2.743
    1X2IT    C6   44   1.571   0.349   2.626
    1X2IT   C12   45   1.507   0.301   2.497
    1X2IT    C7   46   1.707   0.368   2.635
    1X2IT    C8   47   1.777   0.416   2.763
    1X2IT    O2   48   1.900   0.434   2.759
    1X2IT    N3   49   1.793   0.348   2.534
    1X2IT   H15   50   1.764   0.318   2.442
    1X2IT   H16   51   1.892   0.367   2.552
    1X2IT    N2   52   1.494   0.440   2.984
    1X2IT    C3   53   1.359   0.493   3.006
    1X2IT    C2   54   1.387   0.618   3.089
    1X2IT    H2   55   1.307   0.662   3.149
    1X2IT    N1   56   1.487   0.706   3.026
    1X2IT   H14   57   1.478   0.801   3.063
    1X2IT    C1   58   1.528   0.616   3.136
    1X2IT    H1   59   1.559   0.656   3.231
    1X2IT   C11   60   1.591   0.487   3.087
    1X2IT    O3   61   1.590   0.403   3.202
    1X2IT   C15   62   1.607   0.263   3.180
    2X2IT   H18   63   0.914   0.006   4.900
    2X2IT    N4   64   0.926   0.078   4.830
    2X2IT   H17   65   0.981   0.158   4.855
    2X2IT   C14   66   0.924   0.036   4.700
    2X2IT    O5   67   0.883  -0.072   4.661
    2X2IT    O4   68   0.971   0.136   4.619
    2X2IT   C13   69   0.969   0.109   4.477
    2X2IT   C10   70   0.831   0.137   4.416
    2X2IT    C9   71   0.826   0.117   4.267
    2X2IT    C4   72   0.787   0.234   4.203
    2X2IT    C5   73   0.774   0.248   4.055
    2X2IT    O1   74   0.734   0.355   4.007
    2X2IT    C6   75   0.807   0.132   3.975
    2X2IT   C12   76   0.796   0.139   3.825
    2X2IT    C7   77   0.845   0.015   4.039
    2X2IT    C8   78   0.858   0.002   4.191
    2X2IT    O2   79   0.897  -0.107   4.236
    2X2IT    N3   80   0.876  -0.098   3.974
    2X2IT   H15   81   0.875  -0.107   3.874
    2X2IT   H16   82   0.905  -0.179   4.031
    2X2IT    N2   83   0.755   0.331   4.292
    2X2IT    C3   84   0.773   0.477   4.277
    2X2IT    C2   85   0.865   0.510   4.394
    2X2IT    H2   86   0.871   0.613   4.430
    2X2IT    N1   87   0.986   0.424   4.397
    2X2IT   H14   88   1.059   0.470   4.452
    2X2IT    C1   89   0.872   0.394   4.486
    2X2IT    H1   90   0.882   0.404   4.593
    2X2IT   C11   91   0.780   0.286   4.432
    2X2IT    O3   92   0.664   0.296   4.512
    2X2IT   C15   93   0.544   0.235   4.462
    3X2IT   H18   94   2.322   3.933   4.438
    3X2IT    N4   95   2.349   4.030   4.438
    3X2IT   H17   96   2.274   4.098   4.444
    3X2IT   C14   97   2.471   4.060   4.493
    3X2IT    O5   98   2.559   3.979   4.515
    3X2IT    O4   99   2.480   4.194   4.515
    3X2IT   C13  100   2.606   4.241   4.566
    3X2IT   C10  101   2.709   4.262   4.453
    3X2IT    C9  102   2.841   4.318   4.502
    3X2IT    C4  103   2.868   4.437   4.437
    3X2IT    C5  104   2.991   4.519   4.463
    3X2IT    O1  105   3.010   4.623   4.398
    3X2IT    C6  106   3.082   4.470   4.564
    3X2IT   C12  107   3.208   4.549   4.595
    3X2IT    C7  108   3.054   4.351   4.628
    3X2IT    C8  109   2.929   4.267   4.600
    3X2IT    O2  110   2.912   4.164   4.666
    3X2IT    N3  111   3.133   4.296   4.722
    3X2IT   H15  112   3.219   4.339   4.753
    3X2IT   H16  113   3.102   4.208   4.763
    3X2IT    N2  114   2.776   4.467   4.343
    3X2IT    C3  115   2.729   4.600   4.301
    3X2IT    C2  116   2.580   4.592   4.331
    3X2IT    H2  117   2.511   4.661   4.282
    3X2IT    N1  118   2.553   4.548   4.470
    3X2IT   H14  119   2.459   4.577   4.497
    3X2IT    C1  120   2.542   4.451   4.359
    3X2IT    H1  121   2.447   4.409   4.332
    3X2IT   C11  122   2.667   4.365   4.342
    3X2IT    O3  123   2.650   4.306   4.215
    3X2IT   C15  124   2.767   4.251   4.153
    4X2IT   H18  125   3.985   3.938   4.118
    4X2IT    N4  126   4.009   4.019   4.063
    4X2IT   H17  127   4.086   4.075   4.095
    4X2IT   C14  128   3.983   4.011   3.929
    4X2IT    O5  129   3.911   3.929   3.876
    4X2IT    O4  130   4.047   4.113   3.864
    4X2IT   C13  131   4.024   4.122   3.722
    4X2IT   C10  132   3.893   4.197   3.691
    4X2IT    C9  133   3.868   4.214   3.543
    4X2IT    C4  134   3.856   4.348   3.512
    4X2IT    C5  135   3.831   4.401   3.373
    4X2IT    O1  136   3.818   4.522   3.355
    4X2IT    C6  137   3.824   4.302   3.268
    4X2IT   C12  138   3.800   4.348   3.125
    4X2IT    C7  139   3.835   4.168   3.299
    4X2IT    C8  140   3.859   4.116   3.441
    4X2IT    O2  141   3.872   3.994   3.456
    4X2IT    N3  142   3.828   4.070   3.208
    4X2IT   H15  143   3.814   4.086   3.110
    4X2IT   H16  144   3.839   3.974   3.242
    4X2IT    N2  145   3.860   4.427   3.623
    4X2IT    C3  146   3.915   4.563   3.635
    4X2IT    C2  147   4.024   4.544   3.740
    4X2IT    H2  148   4.061   4.631   3.795
    4X2IT    N1  149   4.116   4.434   3.706
    4X2IT   H14  150   4.204   4.446   3.757
    4X2IT    C1  151   4.008   4.411   3.804
    4X2IT    H1  152   4.031   4.393   3.908
    4X2IT   C11  153   3.885   4.345   3.744
    4X2IT    O3  154   3.785   4.363   3.842
    4X2IT   C15  155   3.649   4.346   3.801
    5X2IT   H18  156   4.132   4.969   3.472
    5X2IT    N4  157   4.046   4.984   3.424
    5X2IT   H17  158   4.049   5.036   3.337
    5X2IT   C14  159   3.950   4.888   3.439
    5X2IT    O5  160   3.950   4.802   3.526
    5X2IT    O4  161   3.851   4.905   3.346
    5X2IT   C13  162   3.740   4.814   3.354
    5X2IT   C10  163   3.636   4.861   3.458
    5X2IT    C9  164   3.514   4.773   3.465
    5X2IT    C4  165   3.400   4.846   3.440
    5X2IT    C5  166   3.262   4.789   3.438
    5X2IT    O1  167   3.165   4.863   3.418
    5X2IT    C6  168   3.251   4.647   3.462
    5X2IT   C12  169   3.114   4.582   3.461
    5X2IT    C7  170   3.365   4.573   3.488
    5X2IT    C8  171   3.505   4.634   3.490
    5X2IT    O2  172   3.601   4.557   3.511
    5X2IT    N3  173   3.364   4.441   3.513
    5X2IT   H15  174   3.281   4.386   3.514
    5X2IT   H16  175   3.455   4.397   3.530
    5X2IT    N2  176   3.427   4.979   3.424
    5X2IT    C3  177   3.358   5.075   3.337
    5X2IT    C2  178   3.471   5.122   3.246
    5X2IT    H2  179   3.462   5.217   3.193
    5X2IT    N1  180   3.543   5.009   3.183
    5X2IT   H14  181   3.592   5.043   3.099
    5X2IT    C1  182   3.601   5.076   3.301
    5X2IT    H1  183   3.693   5.134   3.292
    5X2IT   C11  184   3.574   5.003   3.431
    5X2IT    O3  185   3.607   5.098   3.531
    5X2IT   C15  186   3.556   5.074   3.663
    6X2IT   H18  187   0.455   4.654  -0.099
    6X2IT    N4  188   0.519   4.726  -0.073
    6X2IT   H17  189   0.570   4.772  -0.147
    6X2IT   C14  190   0.487   4.797   0.040
    6X2IT    O5  191   0.406   4.764   0.124
    6X2IT    O4  192   0.564   4.910   0.046
    6X2IT   C13  193   0.547   4.992   0.164
    6X2IT   C10  194   0.630   4.939   0.282
    6X2IT    C9  195   0.619   5.027   0.405
    6X2IT    C4  196   0.745   5.071   0.443
    6X2IT    C5  197   0.770   5.160   0.561
    6X2IT    O1  198   0.886   5.192   0.590
    6X2IT    C6  199   0.654   5.203   0.635
    6X2IT   C12  200   0.672   5.294   0.755
    6X2IT    C7  201   0.529   5.158   0.598
    6X2IT    C8  202   0.505   5.066   0.478
    6X2IT    O2  203   0.387   5.036   0.451
    6X2IT    N3  204   0.416   5.191   0.662
    6X2IT   H15  205   0.413   5.252   0.742
    6X2IT   H16  206   0.328   5.153   0.625
    6X2IT    N2  207   0.843   5.018   0.366
    6X2IT    C3  208   0.970   5.080   0.326
    6X2IT    C2  209   0.960   5.080   0.174
    6X2IT    H2  210   1.050   5.089   0.114
    6X2IT    N1  211   0.834   5.141   0.127
    6X2IT   H14  212   0.845   5.171   0.030
    6X2IT    C1  213   0.846   4.994   0.132
    6X2IT    H1  214   0.847   4.935   0.042
    6X2IT   C11  215   0.785   4.933   0.258
    6X2IT    O3  216   0.836   4.801   0.260
    6X2IT   C15  217   0.829   4.731   0.385
    7X2IT   H18  218   2.243   4.399   0.600
    7X2IT    N4  219   2.222   4.308   0.563
    7X2IT   H17  220   2.298   4.241   0.559
    7X2IT   C14  221   2.094   4.262   0.582
    7X2IT    O5  222   1.999   4.331   0.614
    7X2IT    O4  223   2.089   4.128   0.556
    7X2IT   C13  224   1.958   4.067   0.565
    7X2IT   C10  225   1.877   4.087   0.436
    7X2IT    C9  226   1.742   4.019   0.440
    7X2IT    C4  227   1.732   3.929   0.335
    7X2IT    C5  228   1.611   3.844   0.310
    7X2IT    O1  229   1.608   3.769   0.211
    7X2IT    C6  230   1.502   3.856   0.404
    7X2IT   C12  231   1.377   3.773   0.385
    7X2IT    C7  232   1.512   3.947   0.508
    7X2IT    C8  233   1.636   4.034   0.532
    7X2IT    O2  234   1.636   4.109   0.631
    7X2IT    N3  235   1.416   3.967   0.599
    7X2IT   H15  236   1.329   3.917   0.600
    7X2IT   H16  237   1.435   4.036   0.673
    7X2IT    N2  238   1.840   3.933   0.253
    7X2IT    C3  239   1.900   3.822   0.178
    7X2IT    C2  240   2.042   3.817   0.235
    7X2IT    H2  241   2.121   3.769   0.178
    7X2IT    N1  242   2.043   3.811   0.383
    7X2IT   H14  243   2.133   3.774   0.414
    7X2IT    C1  244   2.066   3.940   0.315
    7X2IT    H1  245   2.163   3.989   0.320
    7X2IT   C11  246   1.942   4.028   0.306
    7X2IT    O3  247   1.976   4.127   0.211
    7X2IT   C15  248   1.869   4.201   0.152
    8X2IT   H18  249   4.606   4.295   2.283
    8X2IT    N4  250   4.564   4.356   2.351
    8X2IT   H17  251   4.510   4.312   2.424
    8X2IT   C14  252   4.630   4.473   2.377
    8X2IT    O5  253   4.717   4.522   2.307
    8X2IT    O4  254   4.580   4.530   2.491
    8X2IT   C13  255   4.636   4.657   2.528
    8X2IT   C10  256   4.568   4.773   2.452
    8X2IT    C9  257   4.618   4.909   2.493
    8X2IT    C4  258   4.514   4.987   2.539
    8X2IT    C5  259   4.530   5.128   2.588
    8X2IT    O1  260   4.431   5.192   2.625
    8X2IT    C6  261   4.665   5.181   2.589
    8X2IT   C12  262   4.688   5.322   2.638
    8X2IT    C7  263   4.769   5.103   2.542
    8X2IT    C8  264   4.751   4.960   2.491
    8X2IT    O2  265   4.852   4.898   2.455
    8X2IT    N3  266   4.896   5.144   2.537
    8X2IT   H15  267   4.926   5.235   2.568
    8X2IT   H16  268   4.966   5.078   2.502
    8X2IT    N2  269   4.394   4.924   2.527
    8X2IT    C3  270   4.277   4.936   2.616
    8X2IT    C2  271   4.259   4.792   2.664
    8X2IT    H2  272   4.162   4.760   2.703
    8X2IT    N1  273   4.383   4.735   2.719
    8X2IT   H14  274   4.360   4.656   2.780
    8X2IT    C1  275   4.342   4.702   2.581
    8X2IT    H1  276   4.313   4.601   2.555
    8X2IT   C11  277   4.412   4.786   2.475
    8X2IT    O3  278   4.337   4.763   2.358
    8X2IT   C15  279   4.353   4.857   2.251
    9X2IT   H18  280   2.642   0.449   1.405
    9X2IT    N4  281   2.713   0.514   1.375
    9X2IT   H17  282   2.714   0.605   1.418
    9X2IT   C14  283   2.831   0.459   1.333
    9X2IT    O5  284   2.848   0.342   1.304
    9X2IT    O4  285   2.927   0.556   1.325
    9X2IT   C13  286   3.056   0.514   1.276
    9X2IT   C10  287   3.060   0.511   1.123
    9X2IT    C9  288   3.195   0.474   1.067
    9X2IT    C4  289   3.242   0.574   0.984
    9X2IT    C5  290   3.374   0.570   0.913
    9X2IT    O1  291   3.406   0.663   0.838
    9X2IT    C6  292   3.457   0.454   0.938
    9X2IT   C12  293   3.592   0.443   0.870
    9X2IT    C7  294   3.410   0.353   1.020
    9X2IT    C8  295   3.274   0.358   1.091
    9X2IT    O2  296   3.244   0.264   1.166
    9X2IT    N3  297   3.478   0.241   1.047
    9X2IT   H15  298   3.570   0.222   1.011
    9X2IT   H16  299   3.434   0.174   1.111
    9X2IT    N2  300   3.151   0.673   0.968
    9X2IT    C3  301   3.176   0.817   0.949
    9X2IT    C2  302   3.105   0.879   1.068
    9X2IT    H2  303   3.077   0.984   1.066
    9X2IT    N1  304   3.146   0.817   1.196
    9X2IT   H14  305   3.125   0.881   1.273
    9X2IT    C1  306   3.019   0.776   1.133
    9X2IT    H1  307   2.924   0.800   1.179
    9X2IT   C11  308   3.030   0.648   1.052
    9X2IT    O3  309   2.912   0.646   0.974
    9X2IT   C15  310   2.910   0.559   0.860
   10X2IT   H18  311   3.281   3.965   1.266
   10X2IT    N4  312   3.252   3.995   1.175
   10X2IT   H17  313   3.183   4.068   1.170
   10X2IT   C14  314   3.344   3.984   1.075
   10X2IT    O5  315   3.447   3.918   1.080
   10X2IT    O4  316   3.303   4.055   0.965
   10X2IT   C13  317   3.388   4.047   0.849
   10X2IT   C10  318   3.359   3.920   0.767
   10X2IT    C9  319   3.441   3.912   0.640
   10X2IT    C4  320   3.358   3.903   0.530
   10X2IT    C5  321   3.407   3.894   0.388
   10X2IT    O1  322   3.326   3.883   0.296
   10X2IT    C6  323   3.550   3.898   0.369
   10X2IT   C12  324   3.607   3.890   0.229
   10X2IT    C7  325   3.633   3.906   0.480
   10X2IT    C8  326   3.582   3.914   0.624
   10X2IT    O2  327   3.665   3.925   0.715
   10X2IT    N3  328   3.767   3.908   0.472
   10X2IT   H15  329   3.818   3.905   0.385
   10X2IT   H16  330   3.819   3.915   0.560
   10X2IT    N2  331   3.227   3.896   0.565
   10X2IT    C3  332   3.111   3.949   0.492
   10X2IT    C2  333   3.051   4.046   0.594
   10X2IT    H2  334   2.947   4.077   0.584
   10X2IT    N1  335   3.151   4.141   0.646
   10X2IT   H14  336   3.104   4.223   0.684
   10X2IT    C1  337   3.114   4.023   0.726
   10X2IT    H1  338   3.060   4.034   0.820
   10X2IT   C11  339   3.212   3.907   0.713
   10X2IT    O3  340   3.142   3.797   0.767
   10X2IT   C15  341   3.191   3.666   0.735
   11X2IT   H18  342   1.042   0.835   2.793
   11X2IT    N4  343   1.013   0.924   2.828
   11X2IT   H17  344   0.966   0.986   2.763
   11X2IT   C14  345   0.979   0.929   2.961
   11X2IT    O5  346   1.008   0.845   3.043
   11X2IT    O4  347   0.912   1.045   2.987
   11X2IT   C13  348   0.877   1.067   3.125
   11X2IT   C10  349   0.994   1.127   3.205
   11X2IT    C9  350   0.958   1.158   3.349
   11X2IT    C4  351   0.979   1.293   3.375
   11X2IT    C5  352   0.953   1.357   3.508
   11X2IT    O1  353   0.978   1.477   3.524
   11X2IT    C6  354   0.899   1.272   3.612
   11X2IT   C12  355   0.870   1.330   3.748
   11X2IT    C7  356   0.879   1.137   3.585
   11X2IT    C8  357   0.907   1.073   3.449
   11X2IT    O2  358   0.882   0.952   3.436
   11X2IT    N3  359   0.832   1.050   3.676
   11X2IT   H15  360   0.806   1.076   3.769
   11X2IT   H16  361   0.820   0.953   3.645
   11X2IT    N2  362   1.034   1.358   3.269
   11X2IT    C3  363   1.013   1.497   3.228
   11X2IT    C2  364   0.955   1.481   3.088
   11X2IT    H2  365   0.959   1.565   3.018
   11X2IT    N1  366   0.840   1.389   3.085
   11X2IT   H14  367   0.784   1.407   3.001
   11X2IT    C1  368   0.973   1.341   3.043
   11X2IT    H1  369   0.992   1.314   2.940
   11X2IT   C11  370   1.047   1.266   3.153
   11X2IT    O3  371   1.181   1.259   3.105
   11X2IT   C15  372   1.283   1.229   3.202
   12X2IT   H18  373   0.946   3.870   1.487
   12X2IT    N4  374   0.949   3.800   1.414
   12X2IT   H17  375   0.912   3.709   1.437
   12X2IT   C14  376   0.940   3.846   1.286
   12X2IT    O5  377   0.956   3.962   1.251
   12X2IT    O4  378   0.913   3.742   1.201
   12X2IT   C13  379   0.908   3.774   1.061
   12X2IT   C10  380   1.048   3.778   0.998
   12X2IT    C9  381   1.046   3.805   0.849
   12X2IT    C4  382   1.108   3.702   0.781
   12X2IT    C5  383   1.122   3.696   0.632
   12X2IT    O1  384   1.183   3.602   0.580
   12X2IT    C6  385   1.064   3.805   0.558
   12X2IT   C12  386   1.075   3.806   0.406
   12X2IT    C7  387   1.003   3.909   0.626
   12X2IT    C8  388   0.990   3.914   0.778
   12X2IT    O2  389   0.929   4.009   0.828
   12X2IT    N3  390   0.948   4.016   0.566
   12X2IT   H15  391   0.946   4.028   0.466
   12X2IT   H16  392   0.904   4.086   0.626
   12X2IT    N2  393   1.161   3.610   0.866
   12X2IT    C3  394   1.174   3.464   0.845
   12X2IT    C2  395   1.093   3.408   0.961
   12X2IT    H2  396   1.110   3.305   0.993
   12X2IT    N1  397   0.957   3.466   0.968
   12X2IT   H14  398   0.896   3.404   1.021
   12X2IT    C1  399   1.063   3.516   1.057
   12X2IT    H1  400   1.057   3.500   1.164
   12X2IT   C11  401   1.130   3.644   1.007
   12X2IT    O3  402   1.246   3.655   1.086
   12X2IT   C15  403   1.350   3.742   1.038
   13X2IT   H18  404   0.543   0.887   0.877
   13X2IT    N4  405   0.609   0.812   0.882
   13X2IT   H17  406   0.626   0.771   0.973
   13X2IT   C14  407   0.621   0.733   0.771
   13X2IT    O5  408   0.580   0.762   0.660
   13X2IT    O4  409   0.690   0.619   0.802
   13X2IT   C13  410   0.715   0.529   0.692
   13X2IT   C10  411   0.840   0.572   0.613
   13X2IT    C9  412   0.875   0.476   0.501
   13X2IT    C4  413   1.003   0.427   0.518
   13X2IT    C5  414   1.068   0.329   0.425
   13X2IT    O1  415   1.185   0.294   0.446
   13X2IT    C6  416   0.989   0.282   0.314
   13X2IT   C12  417   1.048   0.183   0.217
   13X2IT    C7  418   0.861   0.332   0.297
   13X2IT    C8  419   0.796   0.432   0.392
   13X2IT    O2  420   0.679   0.467   0.369
   13X2IT    N3  421   0.780   0.296   0.196
   13X2IT   H15  422   0.806   0.229   0.125
   13X2IT   H16  423   0.686   0.338   0.194
   13X2IT    N2  424   1.066   0.484   0.624
   13X2IT    C3  425   1.165   0.423   0.714
   13X2IT    C2  426   1.096   0.434   0.850
   13X2IT    H2  427   1.156   0.429   0.941
   13X2IT    N1  428   0.959   0.379   0.848
   13X2IT   H14  429   0.931   0.356   0.943
   13X2IT    C1  430   0.979   0.525   0.838
   13X2IT    H1  431   0.947   0.590   0.918
   13X2IT   C11  432   0.974   0.577   0.696
   13X2IT    O3  433   1.028   0.708   0.705
   13X2IT   C15  434   1.072   0.769   0.583
   14X2IT   H18  435   3.400   3.470   0.648
   14X2IT    N4  436   3.457   3.395   0.613
   14X2IT   H17  437   3.449   3.305   0.658
   14X2IT   C14  438   3.488   3.400   0.480
   14X2IT    O5  439   3.476   3.498   0.408
   14X2IT    O4  440   3.538   3.279   0.439
   14X2IT   C13  441   3.581   3.272   0.302
   14X2IT   C10  442   3.723   3.326   0.284
   14X2IT    C9  443   3.775   3.313   0.143
   14X2IT    C4  444   3.891   3.239   0.141
   14X2IT    C5  445   3.968   3.206   0.016
   14X2IT    O1  446   4.073   3.142   0.024
   14X2IT    C6  447   3.912   3.254  -0.108
   14X2IT   C12  448   3.984   3.225  -0.238
   14X2IT    C7  449   3.796   3.330  -0.106
   14X2IT    C8  450   3.719   3.363   0.022
   14X2IT    O2  451   3.614   3.427   0.012
   14X2IT    N3  452   3.738   3.380  -0.216
   14X2IT   H15  453   3.774   3.366  -0.309
   14X2IT   H16  454   3.651   3.433  -0.203
   14X2IT    N2  455   3.932   3.205   0.266
   14X2IT    C3  456   4.003   3.083   0.308
   14X2IT    C2  457   3.906   3.024   0.409
   14X2IT    H2  458   3.942   2.951   0.483
   14X2IT    N1  459   3.769   3.011   0.355
   14X2IT   H14  460   3.717   2.941   0.410
   14X2IT    C1  461   3.802   3.124   0.443
   14X2IT    H1  462   3.758   3.133   0.542
   14X2IT   C11  463   3.835   3.252   0.368
   14X2IT    O3  464   3.895   3.335   0.465
   14X2IT   C15  465   3.971   3.447   0.417
   15X2IT   H18  466   1.455   4.355   2.842
   15X2IT    N4  467   1.397   4.423   2.888
   15X2IT   H17  468   1.396   4.422   2.989
   15X2IT   C14  469   1.377   4.541   2.823
   15X2IT    O5  470   1.400   4.561   2.704
   15X2IT    O4  471   1.323   4.633   2.908
   15X2IT   C13  472   1.291   4.761   2.851
   15X2IT   C10  473   1.153   4.759   2.782
   15X2IT    C9  474   1.112   4.893   2.727
   15X2IT    C4  475   0.992   4.933   2.782
   15X2IT    C5  476   0.923   5.063   2.750
   15X2IT    O1  477   0.813   5.088   2.802
   15X2IT    C6  478   0.991   5.150   2.657
   15X2IT   C12  479   0.927   5.282   2.620
   15X2IT    C7  480   1.110   5.110   2.600
   15X2IT    C8  481   1.179   4.977   2.634
   15X2IT    O2  482   1.288   4.953   2.581
   15X2IT    N3  483   1.179   5.183   2.512
   15X2IT   H15  484   1.150   5.274   2.480
   15X2IT   H16  485   1.268   5.144   2.478
   15X2IT    N2  486   0.939   4.838   2.864
   15X2IT    C3  487   0.859   4.858   2.986
   15X2IT    C2  488   0.944   4.789   3.092
   15X2IT    H2  489   0.898   4.757   3.185
   15X2IT    N1  490   1.084   4.838   3.091
   15X2IT   H14  491   1.127   4.818   3.182
   15X2IT    C1  492   1.051   4.710   3.026
   15X2IT    H1  493   1.087   4.616   3.065
   15X2IT   C11  494   1.032   4.722   2.875
   15X2IT    O3  495   0.969   4.600   2.838
   15X2IT   C15  496   0.903   4.597   2.711
   16X2IT   H18  497   2.771   0.226   2.755
   16X2IT    N4  498   2.810   0.249   2.666
   16X2IT   H17  499   2.810   0.177   2.596
   16X2IT   C14  500   2.799   0.380   2.627
   16X2IT    O5  501   2.772   0.473   2.700
   16X2IT    O4  502   2.827   0.391   2.493
   16X2IT   C13  503   2.826   0.524   2.439
   16X2IT   C10  504   2.960   0.597   2.464
   16X2IT    C9  505   2.965   0.735   2.402
   16X2IT    C4  506   3.071   0.743   2.314
   16X2IT    C5  507   3.104   0.867   2.235
   16X2IT    O1  508   3.203   0.867   2.161
   16X2IT    C6  509   3.016   0.980   2.252
   16X2IT   C12  510   3.044   1.107   2.175
   16X2IT    C7  511   2.911   0.971   2.341
   16X2IT    C8  512   2.879   0.845   2.422
   16X2IT    O2  513   2.779   0.847   2.496
   16X2IT    N3  514   2.825   1.072   2.366
   16X2IT   H15  515   2.831   1.161   2.320
   16X2IT   H16  516   2.750   1.054   2.432
   16X2IT    N2  517   3.146   0.630   2.313
   16X2IT    C3  518   3.218   0.571   2.199
   16X2IT    C2  519   3.154   0.434   2.188
   16X2IT    H2  520   3.206   0.353   2.136
   16X2IT    N1  521   3.006   0.442   2.180
   16X2IT   H14  522   2.969   0.356   2.139
   16X2IT    C1  523   3.071   0.408   2.308
   16X2IT    H1  524   3.059   0.309   2.352
   16X2IT   C11  525   3.086   0.527   2.402
   16X2IT    O3  526   3.178   0.482   2.500
   16X2IT   C15  527   3.243   0.582   2.580
   17X2IT   H18  528   3.929   0.383   0.359
   17X2IT    N4  529   3.908   0.479   0.380
   17X2IT   H17  530   3.946   0.517   0.466
   17X2IT   C14  531   3.888   0.562   0.273
   17X2IT    O5  532   3.867   0.525   0.159
   17X2IT    O4  533   3.891   0.692   0.314
   17X2IT   C13  534   3.865   0.791   0.212
   17X2IT   C10  535   3.714   0.811   0.191
   17X2IT    C9  536   3.682   0.919   0.090
   17X2IT    C4  537   3.603   1.016   0.147
   17X2IT    C5  538   3.554   1.138   0.075
   17X2IT    O1  539   3.481   1.219   0.134
   17X2IT    C6  540   3.596   1.153  -0.062
   17X2IT   C12  541   3.551   1.274  -0.141
   17X2IT    C7  542   3.674   1.055  -0.120
   17X2IT    C8  543   3.723   0.930  -0.045
   17X2IT    O2  544   3.796   0.851  -0.106
   17X2IT    N3  545   3.717   1.059  -0.248
   17X2IT   H15  546   3.696   1.134  -0.310
   17X2IT   H16  547   3.776   0.981  -0.280
   17X2IT    N2  548   3.568   0.985   0.275
   17X2IT    C3  549   3.547   1.077   0.388
   17X2IT    C2  550   3.651   1.030   0.488
   17X2IT    H2  551   3.640   1.055   0.594
   17X2IT    N1  552   3.787   1.021   0.429
   17X2IT   H14  553   3.857   1.024   0.503
   17X2IT    C1  554   3.706   0.899   0.445
   17X2IT    H1  555   3.736   0.821   0.514
   17X2IT   C11  556   3.633   0.858   0.317
   17X2IT    O3  557   3.538   0.762   0.361
   17X2IT   C15  558   3.429   0.733   0.273
   18X2IT   H18  559   1.559   1.519   5.334
   18X2IT    N4  560   1.528   1.560   5.248
   18X2IT   H17  561   1.554   1.514   5.162
   18X2IT   C14  562   1.410   1.630   5.254
   18X2IT    O5  563   1.356   1.668   5.356
   18X2IT    O4  564   1.365   1.654   5.127
   18X2IT   C13  565   1.244   1.733   5.117
   18X2IT   C10  566   1.275   1.883   5.125
   18X2IT    C9  567   1.152   1.970   5.108
   18X2IT    C4  568   1.168   2.056   5.001
   18X2IT    C5  569   1.064   2.154   4.956
   18X2IT    O1  570   1.089   2.230   4.862
   18X2IT    C6  571   0.940   2.155   5.029
   18X2IT   C12  572   0.830   2.252   4.989
   18X2IT    C7  573   0.924   2.069   5.137
   18X2IT    C8  574   1.031   1.970   5.182
   18X2IT    O2  575   1.004   1.895   5.277
   18X2IT    N3  576   0.812   2.064   5.212
   18X2IT   H15  577   0.732   2.121   5.195
   18X2IT   H16  578   0.811   1.996   5.288
   18X2IT    N2  579   1.292   2.046   4.946
   18X2IT    C3  580   1.330   2.063   4.805
   18X2IT    C2  581   1.391   1.928   4.772
   18X2IT    H2  582   1.458   1.918   4.686
   18X2IT    N1  583   1.301   1.816   4.807
   18X2IT   H14  584   1.327   1.733   4.753
   18X2IT    C1  585   1.413   1.851   4.897
   18X2IT    H1  586   1.496   1.783   4.911
   18X2IT   C11  587   1.371   1.939   5.014
   18X2IT    O3  588   1.493   1.988   5.065
   18X2IT   C15  589   1.487   2.103   5.151
   19X2IT   H18  590   0.732   1.944   1.326
   19X2IT    N4  591   0.772   1.927   1.236
   19X2IT   H17  592   0.831   1.846   1.226
   19X2IT   C14  593   0.698   1.970   1.128
   19X2IT    O5  594   0.605   2.048   1.133
   19X2IT    O4  595   0.747   1.914   1.014
   19X2IT   C13  596   0.683   1.955   0.891
   19X2IT   C10  597   0.740   2.088   0.840
   19X2IT    C9  598   0.681   2.131   0.707
   19X2IT    C4  599   0.781   2.146   0.613
   19X2IT    C5  600   0.756   2.187   0.471
   19X2IT    O1  601   0.852   2.202   0.394
   19X2IT    C6  602   0.619   2.208   0.433
   19X2IT   C12  603   0.586   2.249   0.290
   19X2IT    C7  604   0.519   2.194   0.527
   19X2IT    C8  605   0.546   2.153   0.672
   19X2IT    O2  606   0.448   2.139   0.748
   19X2IT    N3  607   0.388   2.213   0.502
   19X2IT   H15  608   0.353   2.238   0.411
   19X2IT   H16  609   0.323   2.198   0.579
   19X2IT    N2  610   0.905   2.128   0.666
   19X2IT    C3  611   1.023   2.071   0.600
   19X2IT    C2  612   1.054   1.950   0.688
   19X2IT    H2  613   1.154   1.906   0.686
   19X2IT    N1  614   0.936   1.863   0.706
   19X2IT   H14  615   0.966   1.769   0.734
   19X2IT    C1  616   0.974   1.958   0.813
   19X2IT    H1  617   1.011   1.923   0.908
   19X2IT   C11  618   0.895   2.088   0.809
   19X2IT    O3  619   0.968   2.175   0.893
   19X2IT   C15  620   0.941   2.315   0.881
   20X2IT   H18  621   4.273   1.389   4.660
   20X2IT    N4  622   4.373   1.391   4.664
   20X2IT   H17  623   4.424   1.371   4.579
   20X2IT   C14  624   4.429   1.475   4.757
   20X2IT    O5  625   4.370   1.526   4.850
   20X2IT    O4  626   4.562   1.491   4.731
   20X2IT   C13  627   4.636   1.572   4.824
   20X2IT   C10  628   4.679   1.491   4.948
   20X2IT    C9  629   4.762   1.571   5.046
   20X2IT    C4  630   4.884   1.510   5.065
   20X2IT    C5  631   4.992   1.564   5.155
   20X2IT    O1  632   5.097   1.501   5.170
   20X2IT    C6  633   4.963   1.689   5.222
   20X2IT   C12  634   5.067   1.750   5.314
   20X2IT    C7  635   4.840   1.750   5.203
   20X2IT    C8  636   4.731   1.693   5.111
   20X2IT    O2  637   4.627   1.758   5.098
   20X2IT    N3  638   4.804   1.865   5.262
   20X2IT   H15  639   4.864   1.917   5.323
   20X2IT   H16  640   4.711   1.902   5.239
   20X2IT    N2  641   4.893   1.392   5.000
   20X2IT    C3  642   5.013   1.331   4.939
   20X2IT    C2  643   4.973   1.319   4.793
   20X2IT    H2  644   5.025   1.248   4.728
   20X2IT    N1  645   4.924   1.447   4.738
   20X2IT   H14  646   4.931   1.445   4.635
   20X2IT    C1  647   4.827   1.344   4.780
   20X2IT    H1  648   4.765   1.293   4.707
   20X2IT   C11  649   4.771   1.367   4.919
   20X2IT    O3  650   4.709   1.244   4.952
   20X2IT   C15  651   4.681   1.220   5.091
   21X2IT   H18  652   1.205   3.500   3.675
   21X2IT    N4  653   1.263   3.573   3.711
   21X2IT   H17  654   1.221   3.638   3.776
   21X2IT   C14  655   1.397   3.545   3.721
   21X2IT    O5  656   1.453   3.452   3.666
   21X2IT    O4  657   1.458   3.639   3.798
   21X2IT   C13  658   1.601   3.626   3.813
   21X2IT   C10  659   1.676   3.688   3.693
   21X2IT    C9  660   1.826   3.682   3.708
   21X2IT    C4  661   1.880   3.810   3.702
   21X2IT    C5  662   2.026   3.840   3.714
   21X2IT    O1  663   2.065   3.957   3.704
   21X2IT    C6  664   2.113   3.727   3.736
   21X2IT   C12  665   2.263   3.751   3.749
   21X2IT    C7  666   2.060   3.600   3.741
   21X2IT    C8  667   1.911   3.570   3.727
   21X2IT    O2  668   1.873   3.452   3.738
   21X2IT    N3  669   2.134   3.489   3.759
   21X2IT   H15  670   2.233   3.490   3.771
   21X2IT   H16  671   2.083   3.400   3.762
   21X2IT    N2  672   1.785   3.904   3.676
   21X2IT    C3  673   1.780   4.043   3.724
   21X2IT    C2  674   1.649   4.046   3.802
   21X2IT    H2  675   1.600   4.141   3.822
   21X2IT    N1  676   1.641   3.937   3.902
   21X2IT   H14  677   1.572   3.961   3.973
   21X2IT    C1  678   1.571   3.923   3.772
   21X2IT    H1  679   1.463   3.921   3.767
   21X2IT   C11  680   1.650   3.842   3.670
   21X2IT    O3  681   1.584   3.869   3.547
   21X2IT   C15  682   1.657   3.838   3.427
   22X2IT   H18  683   3.846   2.673   3.132
   22X2IT    N4  684   3.924   2.647   3.189
   22X2IT   H17  685   4.011   2.696   3.171
   22X2IT   C14  686   3.897   2.603   3.315
   22X2IT    O5  687   3.788   2.566   3.355
   22X2IT    O4  688   4.011   2.602   3.390
   22X2IT   C13  689   3.999   2.551   3.524
   22X2IT   C10  690   4.007   2.398   3.527
   22X2IT    C9  691   4.001   2.340   3.667
   22X2IT    C4  692   4.114   2.265   3.692
   22X2IT    C5  693   4.140   2.195   3.823
   22X2IT    O1  694   4.243   2.126   3.835
   22X2IT    C6  695   4.042   2.212   3.926
   22X2IT   C12  696   4.062   2.144   4.060
   22X2IT    C7  697   3.928   2.287   3.901
   22X2IT    C8  698   3.902   2.357   3.767
   22X2IT    O2  699   3.799   2.426   3.757
   22X2IT    N3  700   3.830   2.307   3.990
   22X2IT   H15  701   3.832   2.270   4.083
   22X2IT   H16  702   3.752   2.366   3.961
   22X2IT    N2  703   4.194   2.255   3.583
   22X2IT    C3  704   4.341   2.245   3.580
   22X2IT    C2  705   4.379   2.368   3.499
   22X2IT    H2  706   4.477   2.373   3.450
   22X2IT    N1  707   4.318   2.492   3.552
   22X2IT   H14  708   4.371   2.573   3.520
   22X2IT    C1  709   4.258   2.425   3.435
   22X2IT    H1  710   4.259   2.473   3.338
   22X2IT   C11  711   4.140   2.336   3.471
   22X2IT    O3  712   4.120   2.258   3.354
   22X2IT   C15  713   4.042   2.138   3.368
   23X2IT   H18  714   2.381   1.429   1.783
   23X2IT    N4  715   2.286   1.442   1.753
   23X2IT   H17  716   2.226   1.498   1.811
   23X2IT   C14  717   2.265   1.441   1.618
   23X2IT    O5  718   2.344   1.399   1.535
   23X2IT    O4  719   2.141   1.489   1.590
   23X2IT   C13  720   2.102   1.488   1.451
   23X2IT   C10  721   2.047   1.350   1.409
   23X2IT    C9  722   1.999   1.346   1.266
   23X2IT    C4  723   1.866   1.309   1.262
   23X2IT    C5  724   1.786   1.296   1.135
   23X2IT    O1  725   1.668   1.258   1.140
   23X2IT    C6  726   1.855   1.329   1.012
   23X2IT   C12  727   1.781   1.318   0.880
   23X2IT    C7  728   1.988   1.365   1.017
   23X2IT    C8  729   2.068   1.377   1.147
   23X2IT    O2  730   2.186   1.415   1.139
   23X2IT    N3  731   2.061   1.395   0.908
   23X2IT   H15  732   2.024   1.394   0.815
   23X2IT   H16  733   2.159   1.422   0.923
   23X2IT    N2  734   1.817   1.278   1.385
   23X2IT    C3  735   1.681   1.297   1.436
   23X2IT    C2  736   1.704   1.389   1.555
   23X2IT    H2  737   1.629   1.396   1.634
   23X2IT    N1  738   1.784   1.509   1.519
   23X2IT   H14  739   1.768   1.582   1.589
   23X2IT    C1  740   1.849   1.394   1.586
   23X2IT    H1  741   1.888   1.403   1.687
   23X2IT   C11  742   1.921   1.301   1.489
   23X2IT    O3  743   1.946   1.184   1.566
   23X2IT   C15  744   1.977   1.064   1.494
   24X2IT   H18  745   5.266   1.161   4.483
   24X2IT    N4  746   5.256   1.071   4.441
   24X2IT   H17  747   5.330   1.004   4.456
   24X2IT   C14  748   5.128   1.026   4.423
   24X2IT    O5  749   5.028   1.095   4.429
   24X2IT    O4  750   5.130   0.892   4.394
   24X2IT   C13  751   5.002   0.832   4.366
   24X2IT   C10  752   4.960   0.854   4.220
   24X2IT    C9  753   4.829   0.786   4.184
   24X2IT    C4  754   4.848   0.698   4.080
   24X2IT    C5  755   4.739   0.614   4.020
   24X2IT    O1  756   4.764   0.540   3.924
   24X2IT    C6  757   4.608   0.625   4.081
   24X2IT   C12  758   4.494   0.543   4.027
   24X2IT    C7  759   4.589   0.714   4.185
   24X2IT    C8  760   4.702   0.800   4.244
   24X2IT    O2  761   4.674   0.873   4.341
   24X2IT    N3  762   4.472   0.733   4.247
   24X2IT   H15  763   4.388   0.684   4.222
   24X2IT   H16  764   4.470   0.801   4.324
   24X2IT    N2  765   4.975   0.703   4.031
   24X2IT    C3  766   5.054   0.592   3.974
   24X2IT    C2  767   5.174   0.587   4.067
   24X2IT    H2  768   5.266   0.539   4.034
   24X2IT    N1  769   5.134   0.578   4.210
   24X2IT   H14  770   5.211   0.540   4.264
   24X2IT    C1  771   5.175   0.708   4.153
   24X2IT    H1  772   5.267   0.756   4.186
   24X2IT   C11  773   5.059   0.796   4.111
   24X2IT    O3  774   5.118   0.896   4.031
   24X2IT   C15  775   5.031   0.972   3.946
   25X2IT   H18  776   2.147   3.430   0.903
   25X2IT    N4  777   2.229   3.377   0.879
   25X2IT   H17  778   2.264   3.312   0.948
   25X2IT   C14  779   2.246   3.349   0.747
   25X2IT    O5  780   2.188   3.404   0.655
   25X2IT    O4  781   2.342   3.252   0.732
   25X2IT   C13  782   2.376   3.217   0.596
   25X2IT   C10  783   2.479   3.315   0.536
   25X2IT    C9  784   2.522   3.278   0.396
   25X2IT    C4  785   2.659   3.260   0.392
   25X2IT    C5  786   2.735   3.222   0.269
   25X2IT    O1  787   2.858   3.212   0.273
   25X2IT    C6  788   2.657   3.199   0.149
   25X2IT   C12  789   2.727   3.160   0.021
   25X2IT    C7  790   2.520   3.218   0.153
   25X2IT    C8  791   2.444   3.258   0.280
   25X2IT    O2  792   2.320   3.267   0.273
   25X2IT    N3  793   2.439   3.201   0.048
   25X2IT   H15  794   2.472   3.173  -0.043
   25X2IT   H16  795   2.339   3.216   0.062
   25X2IT    N2  796   2.718   3.290   0.511
   25X2IT    C3  797   2.838   3.227   0.571
   25X2IT    C2  798   2.783   3.172   0.701
   25X2IT    H2  799   2.851   3.149   0.783
   25X2IT    N1  800   2.663   3.088   0.681
   25X2IT   H14  801   2.650   3.026   0.761
   25X2IT    C1  802   2.648   3.227   0.726
   25X2IT    H1  803   2.610   3.250   0.825
   25X2IT   C11  804   2.616   3.324   0.613
   25X2IT    O3  805   2.639   3.452   0.670
   25X2IT   C15  806   2.655   3.562   0.580
   26X2IT   H18  807   4.062   3.881   1.231
   26X2IT    N4  808   4.020   3.944   1.297
   26X2IT   H17  809   4.012   4.041   1.269
   26X2IT   C14  810   3.927   3.891   1.382
   26X2IT    O5  811   3.911   3.772   1.402
   26X2IT    O4  812   3.858   3.991   1.444
   26X2IT   C13  813   3.760   3.949   1.541
   26X2IT   C10  814   3.825   3.922   1.678
   26X2IT    C9  815   3.725   3.885   1.785
   26X2IT    C4  816   3.733   3.974   1.891
   26X2IT    C5  817   3.647   3.966   2.014
   26X2IT    O1  818   3.664   4.048   2.105
   26X2IT    C6  819   3.549   3.860   2.017
   26X2IT   C12  820   3.459   3.847   2.138
   26X2IT    C7  821   3.542   3.771   1.912
   26X2IT    C8  822   3.631   3.780   1.787
   26X2IT    O2  823   3.613   3.697   1.697
   26X2IT    N3  824   3.455   3.668   1.906
   26X2IT   H15  825   3.388   3.649   1.979
   26X2IT   H16  826   3.458   3.609   1.823
   26X2IT    N2  827   3.833   4.064   1.874
   26X2IT    C3  828   3.837   4.204   1.919
   26X2IT    C2  829   3.854   4.280   1.788
   26X2IT    H2  830   3.893   4.381   1.788
   26X2IT    N1  831   3.753   4.240   1.687
   26X2IT   H14  832   3.745   4.314   1.617
   26X2IT    C1  833   3.889   4.184   1.680
   26X2IT    H1  834   3.955   4.208   1.598
   26X2IT   C11  835   3.900   4.045   1.742
   26X2IT    O3  836   4.039   4.024   1.756
   26X2IT   C15  837   4.082   3.921   1.846
   27X2IT   H18  838   4.018   2.082   1.175
   27X2IT    N4  839   4.073   2.020   1.231
   27X2IT   H17  840   4.089   1.927   1.196
   27X2IT   C14  841   4.169   2.078   1.310
   27X2IT    O5  842   4.175   2.197   1.337
   27X2IT    O4  843   4.255   1.983   1.356
   27X2IT   C13  844   4.358   2.029   1.446
   27X2IT   C10  845   4.306   2.040   1.591
   27X2IT    C9  846   4.413   2.081   1.689
   27X2IT    C4  847   4.427   1.985   1.788
   27X2IT    C5  848   4.525   1.995   1.902
   27X2IT    O1  849   4.527   1.906   1.988
   27X2IT    C6  850   4.611   2.111   1.902
   27X2IT   C12  851   4.712   2.127   2.014
   27X2IT    C7  852   4.597   2.207   1.804
   27X2IT    C8  853   4.496   2.196   1.690
   27X2IT    O2  854   4.495   2.286   1.604
   27X2IT    N3  855   4.671   2.319   1.798
   27X2IT   H15  856   4.743   2.341   1.864
   27X2IT   H16  857   4.653   2.382   1.720
   27X2IT    N2  858   4.335   1.886   1.775
   27X2IT    C3  859   4.351   1.743   1.810
   27X2IT    C2  860   4.328   1.675   1.675
   27X2IT    H2  861   4.300   1.570   1.673
   27X2IT    N1  862   4.412   1.732   1.568
   27X2IT   H14  863   4.420   1.664   1.492
   27X2IT    C1  864   4.271   1.773   1.580
   27X2IT    H1  865   4.199   1.746   1.503
   27X2IT   C11  866   4.253   1.905   1.653
   27X2IT    O3  867   4.114   1.909   1.682
   27X2IT   C15  868   4.072   2.001   1.784
   28X2IT   H18  869   5.047   5.069   4.660
   28X2IT    N4  870   5.033   4.977   4.622
   28X2IT   H17  871   5.001   4.906   4.686
   28X2IT   C14  872   4.997   4.971   4.491
   28X2IT    O5  873   5.007   5.062   4.410
   28X2IT    O4  874   4.952   4.845   4.461
   28X2IT   C13  875   4.917   4.821   4.324
   28X2IT   C10  876   5.041   4.787   4.239
   28X2IT    C9  877   5.007   4.754   4.095
   28X2IT    C4  878   5.052   4.627   4.063
   28X2IT    C5  879   5.034   4.563   3.928
   28X2IT    O1  880   5.080   4.450   3.908
   28X2IT    C6  881   4.962   4.640   3.830
   28X2IT   C12  882   4.940   4.582   3.692
   28X2IT    C7  883   4.918   4.767   3.861
   28X2IT    C8  884   4.938   4.832   3.999
   28X2IT    O2  885   4.890   4.945   4.018
   28X2IT    N3  886   4.852   4.847   3.776
   28X2IT   H15  887   4.829   4.820   3.682
   28X2IT   H16  888   4.823   4.939   3.810
   28X2IT    N2  889   5.121   4.570   4.165
   28X2IT    C3  890   5.128   4.428   4.202
   28X2IT    C2  891   5.073   4.428   4.344
   28X2IT    H2  892   5.095   4.345   4.410
   28X2IT    N1  893   4.942   4.497   4.353
   28X2IT   H14  894   4.893   4.466   4.438
   28X2IT    C1  895   5.065   4.568   4.393
   28X2IT    H1  896   5.083   4.595   4.497
   28X2IT   C11  897   5.121   4.659   4.285
   28X2IT    O3  898   5.252   4.689   4.329
   28X2IT   C15  899   5.343   4.741   4.231
   29X2IT   H18  900   3.625   1.629   4.187
   29X2IT    N4  901   3.593   1.706   4.131
   29X2IT   H17  902   3.662   1.776   4.106
   29X2IT   C14  903   3.490   1.681   4.045
   29X2IT    O5  904   3.417   1.583   4.050
   29X2IT    O4  905   3.479   1.782   3.955
   29X2IT   C13  906   3.369   1.772   3.861
   29X2IT   C10  907   3.238   1.824   3.922
   29X2IT    C9  908   3.122   1.821   3.825
   29X2IT    C4  909   3.069   1.948   3.811
   29X2IT    C5  910   2.953   1.980   3.721
   29X2IT    O1  911   2.910   2.097   3.717
   29X2IT    C6  912   2.899   1.871   3.644
   29X2IT   C12  913   2.782   1.897   3.551
   29X2IT    C7  914   2.951   1.744   3.659
   29X2IT    C8  915   3.068   1.712   3.752
   29X2IT    O2  916   3.110   1.595   3.755
   29X2IT    N3  917   2.905   1.636   3.594
   29X2IT   H15  918   2.830   1.640   3.527
   29X2IT   H16  919   2.953   1.547   3.612
   29X2IT    N2  920   3.129   2.038   3.893
   29X2IT    C3  921   3.153   2.181   3.868
   29X2IT    C2  922   3.305   2.190   3.878
   29X2IT    H2  923   3.352   2.286   3.897
   29X2IT    N1  924   3.373   2.091   3.792
   29X2IT   H14  925   3.469   2.121   3.774
   29X2IT    C1  926   3.358   2.064   3.936
   29X2IT    H1  927   3.444   2.061   4.001
   29X2IT   C11  928   3.240   1.974   3.969
   29X2IT    O3  929   3.223   1.989   4.109
   29X2IT   C15  930   3.097   1.948   4.165
   30X2IT   H18  931   2.096   2.278   4.769
   30X2IT    N4  932   2.154   2.284   4.687
   30X2IT   H17  933   2.244   2.238   4.691
   30X2IT   C14  934   2.090   2.294   4.567
   30X2IT    O5  935   1.972   2.323   4.552
   30X2IT    O4  936   2.177   2.270   4.465
   30X2IT   C13  937   2.125   2.283   4.331
   30X2IT   C10  938   2.125   2.430   4.285
   30X2IT    C9  939   2.077   2.448   4.143
   30X2IT    C4  940   2.175   2.509   4.067
   30X2IT    C5  941   2.160   2.540   3.921
   30X2IT    O1  942   2.251   2.599   3.861
   30X2IT    C6  943   2.036   2.500   3.859
   30X2IT   C12  944   2.014   2.528   3.711
   30X2IT    C7  945   1.938   2.439   3.935
   30X2IT    C8  946   1.954   2.409   4.084
   30X2IT    O2  947   1.862   2.350   4.142
   30X2IT    N3  948   1.819   2.400   3.886
   30X2IT   H15  949   1.793   2.411   3.790
   30X2IT   H16  950   1.755   2.355   3.952
   30X2IT    N2  951   2.283   2.545   4.141
   30X2IT    C3  952   2.424   2.549   4.100
   30X2IT    C2  953   2.489   2.451   4.196
   30X2IT    H2  954   2.596   2.455   4.214
   30X2IT    N1  955   2.420   2.320   4.198
   30X2IT   H14  956   2.483   2.248   4.234
   30X2IT    C1  957   2.393   2.418   4.305
   30X2IT    H1  958   2.424   2.398   4.407
   30X2IT   C11  959   2.267   2.499   4.282
   30X2IT    O3  960   2.278   2.606   4.374
   30X2IT   C15  961   2.195   2.721   4.351
   31X2IT   H18  962   4.204   4.814  -0.157
   31X2IT    N4  963   4.246   4.849  -0.073
   31X2IT   H17  964   4.192   4.916  -0.020
   31X2IT   C14  965   4.331   4.765  -0.007
   31X2IT    O5  966   4.381   4.664  -0.055
   31X2IT    O4  967   4.355   4.812   0.119
   31X2IT   C13  968   4.449   4.736   0.198
   31X2IT   C10  969   4.594   4.774   0.165
   31X2IT    C9  970   4.695   4.702   0.251
   31X2IT    C4  971   4.773   4.793   0.320
   31X2IT    C5  972   4.883   4.754   0.415
   31X2IT    O1  973   4.951   4.843   0.469
   31X2IT    C6  974   4.904   4.613   0.436
   31X2IT   C12  975   5.013   4.567   0.530
   31X2IT    C7  976   4.826   4.522   0.366
   31X2IT    C8  977   4.715   4.563   0.269
   31X2IT    O2  978   4.649   4.473   0.215
   31X2IT    N3  979   4.839   4.389   0.377
   31X2IT   H15  980   4.906   4.345   0.438
   31X2IT   H16  981   4.776   4.331   0.322
   31X2IT    N2  982   4.745   4.921   0.286
   31X2IT    C3  983   4.750   5.041   0.371
   31X2IT    C2  984   4.606   5.090   0.366
   31X2IT    H2  985   4.583   5.194   0.391
   31X2IT    N1  986   4.509   4.984   0.400
   31X2IT   H14  987   4.421   5.027   0.430
   31X2IT    C1  988   4.533   5.019   0.259
   31X2IT    H1  989   4.455   5.065   0.199
   31X2IT   C11  990   4.631   4.926   0.189
   31X2IT    O3  991   4.665   4.994   0.070
   31X2IT   C15  992   4.784   4.951   0.002
   32X2IT   H18  993   0.063   4.978   0.943
   32X2IT    N4  994   0.082   4.894   0.994
   32X2IT   H17  995   0.081   4.901   1.095
   32X2IT   C14  996   0.044   4.777   0.935
   32X2IT    O5  997   0.016   4.763   0.817
   32X2IT    O4  998   0.046   4.676   1.027
   32X2IT   C13  999   0.014   4.544   0.977
   32X2IT   C10 1000   0.137   4.477   0.914
   32X2IT    C9 1001   0.110   4.336   0.867
   32X2IT    C4 1002   0.196   4.247   0.930
   32X2IT    C5 1003   0.195   4.099   0.906
   32X2IT    O1 1004   0.278   4.027   0.964
   32X2IT    C6 1005   0.095   4.049   0.815
   32X2IT   C12 1006   0.088   3.900   0.786
   32X2IT    C7 1007   0.010   4.137   0.751
   32X2IT    C8 1008   0.013   4.289   0.776
   32X2IT    O2 1009  -0.071   4.358   0.717
   32X2IT    N3 1010  -0.084   4.101   0.663
   32X2IT   H15 1011  -0.101   4.005   0.637
   32X2IT   H16 1012  -0.143   4.175   0.624
   32X2IT    N2 1013   0.286   4.310   1.009
   32X2IT    C3 1014   0.345   4.262   1.135
   32X2IT    C2 1015   0.301   4.369   1.234
   32X2IT    H2 1016   0.355   4.382   1.328
   32X2IT    N1 1017   0.155   4.394   1.230
   32X2IT   H14 1018   0.125   4.437   1.317
   32X2IT    C1 1019   0.247   4.486   1.160
   32X2IT    H1 1020   0.258   4.588   1.194
   32X2IT   C11 1021   0.260   4.457   1.011
   32X2IT    O3 1022   0.374   4.532   0.972
   32X2IT   C15 1023   0.435   4.496   0.847
   33X2IT   H18 1024   3.872   3.499   1.884
   33X2IT    N4 1025   3.903   3.433   1.816
   33X2IT   H17 1026   3.908   3.336   1.844
   33X2IT   C14 1027   3.875   3.463   1.685
   33X2IT    O5 1028   3.842   3.573   1.644
   33X2IT    O4 1029   3.895   3.353   1.607
   33X2IT   C13 1030   3.875   3.372   1.465
   33X2IT   C10 1031   4.001   3.429   1.398
   33X2IT    C9 1032   3.987   3.444   1.248
   33X2IT    C4 1033   4.086   3.372   1.184
   33X2IT    C5 1034   4.101   3.364   1.035
   33X2IT    O1 1035   4.195   3.300   0.986
   33X2IT    C6 1036   4.002   3.435   0.957
   33X2IT   C12 1037   4.011   3.431   0.806
   33X2IT    C7 1038   3.904   3.508   1.021
   33X2IT    C8 1039   3.891   3.515   1.173
   33X2IT    O2 1040   3.796   3.580   1.220
   33X2IT    N3 1041   3.809   3.578   0.957
   33X2IT   H15 1042   3.802   3.582   0.857
   33X2IT   H16 1043   3.740   3.627   1.015
   33X2IT    N2 1044   4.173   3.315   1.272
   33X2IT    C3 1045   4.245   3.188   1.258
   33X2IT    C2 1046   4.196   3.110   1.379
   33X2IT    H2 1047   4.253   3.025   1.416
   33X2IT    N1 1048   4.048   3.107   1.387
   33X2IT   H14 1049   4.019   3.028   1.445
   33X2IT    C1 1050   4.124   3.201   1.471
   33X2IT    H1 1051   4.126   3.191   1.578
   33X2IT   C11 1052   4.131   3.342   1.412
   33X2IT    O3 1053   4.233   3.405   1.487
   33X2IT   C15 1054   4.290   3.524   1.432
   34X2IT   H18 1055   1.789   3.371   4.540
   34X2IT    N4 1056   1.828   3.326   4.459
   34X2IT   H17 1057   1.922   3.290   4.468
   34X2IT   C14 1058   1.740   3.265   4.376
   34X2IT    O5 1059   1.619   3.282   4.375
   34X2IT    O4 1060   1.807   3.183   4.289
   34X2IT   C13 1061   1.726   3.116   4.190
   34X2IT   C10 1062   1.699   3.207   4.068
   34X2IT    C9 1063   1.621   3.138   3.959
   34X2IT    C4 1064   1.693   3.140   3.841
   34X2IT    C5 1065   1.644   3.080   3.712
   34X2IT    O1 1066   1.713   3.090   3.610
   34X2IT    C6 1067   1.516   3.013   3.717
   34X2IT   C12 1068   1.461   2.949   3.591
   34X2IT    C7 1069   1.444   3.012   3.835
   34X2IT    C8 1070   1.495   3.074   3.965
   34X2IT    O2 1071   1.424   3.063   4.066
   34X2IT    N3 1072   1.324   2.954   3.848
   34X2IT   H15 1073   1.277   2.906   3.773
   34X2IT   H16 1074   1.280   2.957   3.941
   34X2IT    N2 1075   1.808   3.211   3.852
   34X2IT    C3 1076   1.936   3.186   3.783
   34X2IT    C2 1077   2.031   3.162   3.900
   34X2IT    H2 1078   2.139   3.174   3.885
   34X2IT    N1 1079   1.981   3.060   3.994
   34X2IT   H14 1080   2.059   3.022   4.048
   34X2IT    C1 1081   1.965   3.203   4.027
   34X2IT    H1 1082   2.018   3.246   4.110
   34X2IT   C11 1083   1.827   3.258   3.992
   34X2IT    O3 1084   1.844   3.398   3.999
   34X2IT   C15 1085   1.744   3.479   3.935
   35X2IT   H18 1086   1.535   3.064   0.458
   35X2IT    N4 1087   1.612   3.027   0.511
   35X2IT   H17 1088   1.687   2.984   0.460
   35X2IT   C14 1089   1.640   3.091   0.629
   35X2IT    O5 1090   1.565   3.168   0.687
   35X2IT    O4 1091   1.762   3.052   0.675
   35X2IT   C13 1092   1.802   3.106   0.802
   35X2IT   C10 1093   1.743   3.025   0.919
   35X2IT    C9 1094   1.789   3.074   1.054
   35X2IT    C4 1095   1.852   2.973   1.124
   35X2IT    C5 1096   1.910   2.988   1.261
   35X2IT    O1 1097   1.961   2.890   1.317
   35X2IT    C6 1098   1.900   3.119   1.321
   35X2IT   C12 1099   1.957   3.142   1.459
   35X2IT    C7 1100   1.836   3.221   1.252
   35X2IT    C8 1101   1.777   3.203   1.112
   35X2IT    O2 1102   1.726   3.303   1.058
   35X2IT    N3 1103   1.821   3.345   1.300
   35X2IT   H15 1104   1.856   3.375   1.389
   35X2IT   H16 1105   1.773   3.413   1.239
   35X2IT    N2 1106   1.848   2.855   1.056
   35X2IT    C3 1107   1.949   2.748   1.055
   35X2IT    C2 1108   1.987   2.741   0.908
   35X2IT    H2 1109   2.034   2.651   0.869
   35X2IT    N1 1110   2.024   2.873   0.853
   35X2IT   H14 1111   2.081   2.860   0.769
   35X2IT    C1 1112   1.889   2.819   0.828
   35X2IT    H1 1113   1.859   2.790   0.728
   35X2IT   C11 1114   1.784   2.873   0.923
   35X2IT    O3 1115   1.674   2.786   0.905
   35X2IT   C15 1116   1.573   2.786   1.007
   36X2IT   H18 1117   2.240   2.364  -0.196
   36X2IT    N4 1118   2.227   2.273  -0.155
   36X2IT   H17 1119   2.221   2.194  -0.218
   36X2IT   C14 1120   2.281   2.254  -0.031
   36X2IT    O5 1121   2.317   2.343   0.045
   36X2IT    O4 1122   2.284   2.121  -0.001
   36X2IT   C13 1123   2.332   2.086   0.131
   36X2IT   C10 1124   2.221   2.098   0.236
   36X2IT    C9 1125   2.265   2.056   0.374
   36X2IT    C4 1126   2.186   1.953   0.421
   36X2IT    C5 1127   2.204   1.887   0.555
   36X2IT    O1 1128   2.125   1.798   0.590
   36X2IT    C6 1129   2.314   1.934   0.636
   36X2IT   C12 1130   2.338   1.872   0.772
   36X2IT    C7 1131   2.392   2.038   0.590
   36X2IT    C8 1132   2.372   2.105   0.453
   36X2IT    O2 1133   2.452   2.194   0.420
   36X2IT    N3 1134   2.495   2.090   0.658
   36X2IT   H15 1135   2.523   2.056   0.749
   36X2IT   H16 1136   2.548   2.166   0.614
   36X2IT    N2 1137   2.085   1.923   0.335
   36X2IT    C3 1138   2.024   1.792   0.309
   36X2IT    C2 1139   2.050   1.773   0.160
   36X2IT    H2 1140   1.990   1.702   0.103
   36X2IT    N1 1141   2.193   1.792   0.126
   36X2IT   H14 1142   2.213   1.746   0.037
   36X2IT    C1 1143   2.096   1.901   0.102
   36X2IT    H1 1144   2.072   1.932   0.001
   36X2IT   C11 1145   2.095   2.006   0.212
   36X2IT    O3 1146   1.977   2.080   0.188
   36X2IT   C15 1147   1.927   2.161   0.295
   37X2IT   H18 1148  -0.044   3.205   4.143
   37X2IT    N4 1149   0.010   3.194   4.058
   37X2IT   H17 1150  -0.018   3.251   3.979
   37X2IT   C14 1151   0.141   3.161   4.074
   37X2IT    O5 1152   0.190   3.116   4.176
   37X2IT    O4 1153   0.209   3.181   3.957
   37X2IT   C13 1154   0.348   3.143   3.957
   37X2IT   C10 1155   0.365   2.992   3.931
   37X2IT    C9 1156   0.510   2.950   3.923
   37X2IT    C4 1157   0.536   2.890   3.801
   37X2IT    C5 1158   0.670   2.838   3.760
   37X2IT    O1 1159   0.683   2.782   3.649
   37X2IT    C6 1160   0.778   2.854   3.855
   37X2IT   C12 1161   0.916   2.803   3.820
   37X2IT    C7 1162   0.752   2.912   3.977
   37X2IT    C8 1163   0.614   2.965   4.018
   37X2IT    O2 1164   0.603   3.020   4.129
   37X2IT    N3 1165   0.844   2.930   4.073
   37X2IT   H15 1166   0.940   2.903   4.062
   37X2IT   H16 1167   0.814   2.976   4.159
   37X2IT    N2 1168   0.424   2.878   3.725
   37X2IT    C3 1169   0.412   2.885   3.578
   37X2IT    C2 1170   0.317   3.003   3.559
   37X2IT    H2 1171   0.263   3.014   3.465
   37X2IT    N1 1172   0.362   3.124   3.632
   37X2IT   H14 1173   0.319   3.207   3.590
   37X2IT    C1 1174   0.256   3.039   3.689
   37X2IT    H1 1175   0.155   3.076   3.699
   37X2IT   C11 1176   0.307   2.941   3.794
   37X2IT    O3 1177   0.200   2.849   3.810
   37X2IT   C15 1178   0.231   2.723   3.872
   38X2IT   H18 1179   1.169   3.797   4.131
   38X2IT    N4 1180   1.116   3.878   4.157
   38X2IT   H17 1181   1.017   3.867   4.168
   38X2IT   C14 1182   1.182   3.970   4.234
   38X2IT    O5 1183   1.303   3.976   4.250
   38X2IT    O4 1184   1.092   4.058   4.288
   38X2IT   C13 1185   1.147   4.166   4.367
   38X2IT   C10 1186   1.194   4.282   4.278
   38X2IT    C9 1187   1.247   4.400   4.357
   38X2IT    C4 1188   1.174   4.514   4.327
   38X2IT    C5 1189   1.200   4.648   4.389
   38X2IT    O1 1190   1.132   4.746   4.353
   38X2IT    C6 1191   1.305   4.655   4.487
   38X2IT   C12 1192   1.336   4.787   4.554
   38X2IT    C7 1193   1.378   4.541   4.517
   38X2IT    C8 1194   1.351   4.405   4.452
   38X2IT    O2 1195   1.420   4.308   4.490
   38X2IT    N3 1196   1.479   4.538   4.606
   38X2IT   H15 1197   1.508   4.618   4.658
   38X2IT   H16 1198   1.525   4.447   4.621
   38X2IT    N2 1199   1.082   4.492   4.229
   38X2IT    C3 1200   0.950   4.555   4.213
   38X2IT    C2 1201   0.857   4.435   4.219
   38X2IT    H2 1202   0.756   4.443   4.178
   38X2IT    N1 1203   0.881   4.350   4.338
   38X2IT   H14 1204   0.797   4.294   4.358
   38X2IT    C1 1205   0.936   4.310   4.208
   38X2IT    H1 1206   0.899   4.221   4.158
   38X2IT   C11 1207   1.082   4.348   4.189
   38X2IT    O3 1208   1.104   4.332   4.050
   38X2IT   C15 1209   1.220   4.396   3.995
   39X2IT   H18 1210   2.711   4.031   3.894
   39X2IT    N4 1211   2.664   3.969   3.830
   39X2IT   H17 1212   2.588   3.913   3.868
   39X2IT   C14 1213   2.659   4.008   3.699
   39X2IT    O5 1214   2.729   4.095   3.649
   39X2IT    O4 1215   2.568   3.932   3.632
   39X2IT   C13 1216   2.557   3.958   3.490
   39X2IT   C10 1217   2.665   3.882   3.411
   39X2IT    C9 1218   2.652   3.901   3.261
   39X2IT    C4 1219   2.637   3.779   3.199
   39X2IT    C5 1220   2.622   3.761   3.050
   39X2IT    O1 1221   2.612   3.647   3.003
   39X2IT    C6 1222   2.619   3.882   2.971
   39X2IT   C12 1223   2.603   3.872   2.821
   39X2IT    C7 1224   2.635   4.005   3.034
   39X2IT    C8 1225   2.652   4.021   3.185
   39X2IT    O2 1226   2.661   4.136   3.231
   39X2IT    N3 1227   2.636   4.122   2.969
   39X2IT   H15 1228   2.624   4.130   2.869
   39X2IT   H16 1229   2.647   4.207   3.025
   39X2IT    N2 1230   2.647   3.675   3.286
   39X2IT    C3 1231   2.577   3.546   3.281
   39X2IT    C2 1232   2.498   3.546   3.412
   39X2IT    H2 1233   2.463   3.452   3.454
   39X2IT    N1 1234   2.418   3.670   3.429
   39X2IT   H14 1235   2.343   3.652   3.496
   39X2IT    C1 1236   2.548   3.657   3.498
   39X2IT    H1 1237   2.552   3.650   3.606
   39X2IT   C11 1238   2.662   3.726   3.426
   39X2IT    O3 1239   2.778   3.674   3.488
   39X2IT   C15 1240   2.902   3.689   3.418
   40X2IT   H18 1241   3.584   1.113   0.852
   40X2IT    N4 1242   3.673   1.154   0.876
   40X2IT   H17 1243   3.676   1.254   0.888
   40X2IT   C14 1244   3.757   1.076   0.950
   40X2IT    O5 1245   3.747   0.955   0.964
   40X2IT    O4 1246   3.858   1.152   1.001
   40X2IT   C13 1247   3.960   1.081   1.076
   40X2IT   C10 1248   4.066   1.020   0.982
   40X2IT    C9 1249   4.177   0.951   1.057
   40X2IT    C4 1250   4.299   1.007   1.024
   40X2IT    C5 1251   4.431   0.962   1.081
   40X2IT    O1 1252   4.535   1.016   1.042
   40X2IT    C6 1253   4.426   0.856   1.179
   40X2IT   C12 1254   4.555   0.807   1.241
   40X2IT    C7 1255   4.304   0.800   1.212
   40X2IT    C8 1256   4.171   0.846   1.152
   40X2IT    O2 1257   4.067   0.790   1.192
   40X2IT    N3 1258   4.290   0.700   1.300
   40X2IT   H15 1259   4.367   0.659   1.350
   40X2IT   H16 1260   4.195   0.666   1.318
   40X2IT    N2 1261   4.287   1.102   0.927
   40X2IT    C3 1262   4.367   1.224   0.910
   40X2IT    C2 1263   4.261   1.333   0.920
   40X2IT    H2 1264   4.282   1.432   0.879
   40X2IT    N1 1265   4.179   1.320   1.042
   40X2IT   H14 1266   4.135   1.410   1.064
   40X2IT    C1 1267   4.126   1.272   0.913
   40X2IT    H1 1268   4.042   1.321   0.866
   40X2IT   C11 1269   4.144   1.123   0.892
   40X2IT    O3 1270   4.120   1.104   0.754
   40X2IT   C15 1271   4.166   0.981   0.696
   41X2IT   H18 1272   4.335   2.783   1.608
   41X2IT    N4 1273   4.371   2.750   1.695
   41X2IT   H17 1274   4.379   2.650   1.707
   41X2IT   C14 1275   4.459   2.832   1.759
   41X2IT    O5 1276   4.476   2.950   1.734
   41X2IT    O4 1277   4.523   2.763   1.859
   41X2IT   C13 1278   4.615   2.840   1.940
   41X2IT   C10 1279   4.542   2.916   2.052
   41X2IT    C9 1280   4.636   2.992   2.143
   41X2IT    C4 1281   4.620   2.949   2.274
   41X2IT    C5 1282   4.698   3.003   2.389
   41X2IT    O1 1283   4.674   2.962   2.504
   41X2IT    C6 1284   4.797   3.103   2.359
   41X2IT   C12 1285   4.880   3.162   2.471
   41X2IT    C7 1286   4.813   3.146   2.228
   41X2IT    C8 1287   4.732   3.091   2.111
   41X2IT    O2 1288   4.757   3.134   1.997
   41X2IT    N3 1289   4.901   3.240   2.190
   41X2IT   H15 1290   4.964   3.286   2.254
   41X2IT   H16 1291   4.905   3.263   2.091
   41X2IT    N2 1292   4.519   2.859   2.286
   41X2IT    C3 1293   4.510   2.746   2.380
   41X2IT    C2 1294   4.500   2.626   2.286
   41X2IT    H2 1295   4.460   2.532   2.323
   41X2IT    N1 1296   4.608   2.625   2.185
   41X2IT   H14 1297   4.620   2.530   2.148
   41X2IT    C1 1298   4.474   2.674   2.148
   41X2IT    H1 1299   4.413   2.620   2.077
   41X2IT   C11 1300   4.461   2.826   2.153
   41X2IT    O3 1301   4.322   2.849   2.148
   41X2IT   C15 1302   4.276   2.978   2.190
   42X2IT   H18 1303   1.961   2.357   5.452
   42X2IT    N4 1304   1.902   2.432   5.421
   42X2IT   H17 1305   1.911   2.521   5.468
   42X2IT   C14 1306   1.866   2.431   5.289
   42X2IT    O5 1307   1.876   2.335   5.214
   42X2IT    O4 1308   1.814   2.552   5.253
   42X2IT   C13 1309   1.765   2.563   5.118
   42X2IT   C10 1310   1.622   2.508   5.105
   42X2IT    C9 1311   1.565   2.524   4.966
   42X2IT    C4 1312   1.448   2.597   4.970
   42X2IT    C5 1313   1.366   2.632   4.849
   42X2IT    O1 1314   1.260   2.695   4.864
   42X2IT    C6 1315   1.417   2.588   4.722
   42X2IT   C12 1316   1.340   2.620   4.596
   42X2IT    C7 1317   1.534   2.514   4.717
   42X2IT    C8 1318   1.616   2.478   4.842
   42X2IT    O2 1319   1.721   2.415   4.825
   42X2IT    N3 1320   1.588   2.467   4.604
   42X2IT   H15 1321   1.548   2.483   4.513
   42X2IT   H16 1322   1.675   2.414   4.612
   42X2IT    N2 1323   1.412   2.627   5.098
   42X2IT    C3 1324   1.342   2.748   5.146
   42X2IT    C2 1325   1.443   2.805   5.245
   42X2IT    H2 1326   1.409   2.875   5.322
   42X2IT    N1 1327   1.577   2.821   5.186
   42X2IT   H14 1328   1.631   2.889   5.240
   42X2IT    C1 1329   1.548   2.704   5.272
   42X2IT    H1 1330   1.596   2.694   5.369
   42X2IT   C11 1331   1.514   2.578   5.194
   42X2IT    O3 1332   1.458   2.492   5.292
   42X2IT   C15 1333   1.381   2.381   5.244
   43X2IT   H18 1334   4.491  -0.003   1.045
   43X2IT    N4 1335   4.458   0.056   1.119
   43X2IT   H17 1336   4.458   0.155   1.102
   43X2IT   C14 1337   4.365   0.002   1.204
   43X2IT    O5 1338   4.339  -0.117   1.213
   43X2IT    O4 1339   4.309   0.101   1.279
   43X2IT   C13 1340   4.212   0.058   1.378
   43X2IT   C10 1341   4.282   0.012   1.507
   43X2IT    C9 1342   4.184  -0.027   1.616
   43X2IT    C4 1343   4.206   0.049   1.729
   43X2IT    C5 1344   4.125   0.036   1.855
   43X2IT    O1 1345   4.154   0.106   1.954
   43X2IT    C6 1346   4.018  -0.060   1.854
   43X2IT   C12 1347   3.933  -0.078   1.978
   43X2IT    C7 1348   3.997  -0.137   1.741
   43X2IT    C8 1349   4.080  -0.124   1.613
   43X2IT    O2 1350   4.050  -0.195   1.516
   43X2IT    N3 1351   3.901  -0.231   1.731
   43X2IT   H15 1352   3.837  -0.251   1.805
   43X2IT   H16 1353   3.894  -0.281   1.642
   43X2IT    N2 1354   4.313   0.131   1.716
   43X2IT    C3 1355   4.332   0.265   1.774
   43X2IT    C2 1356   4.349   0.352   1.650
   43X2IT    H2 1357   4.398   0.449   1.658
   43X2IT    N1 1358   4.240   0.332   1.552
   43X2IT   H14 1359   4.235   0.413   1.490
   43X2IT    C1 1360   4.370   0.265   1.531
   43X2IT    H1 1361   4.434   0.292   1.448
   43X2IT   C11 1362   4.371   0.120   1.579
   43X2IT    O3 1363   4.508   0.086   1.582
   43X2IT   C15 1364   4.545  -0.029   1.659
   44X2IT   H18 1365   0.595   2.069   1.446
   44X2IT    N4 1366   0.496   2.079   1.440
   44X2IT   H17 1367   0.439   2.004   1.478
   44X2IT   C14 1368   0.447   2.207   1.443
   44X2IT    O5 1369   0.513   2.308   1.425
   44X2IT    O4 1370   0.312   2.205   1.466
   44X2IT   C13 1371   0.246   2.333   1.465
   44X2IT   C10 1372   0.212   2.378   1.322
   44X2IT    C9 1373   0.136   2.509   1.318
   44X2IT    C4 1374   0.015   2.491   1.253
   44X2IT    C5 1375  -0.085   2.601   1.232
   44X2IT    O1 1376  -0.190   2.577   1.169
   44X2IT    C6 1377  -0.052   2.730   1.286
   44X2IT   C12 1378  -0.149   2.846   1.269
   44X2IT    C7 1379   0.069   2.748   1.350
   44X2IT    C8 1380   0.171   2.635   1.370
   44X2IT    O2 1381   0.275   2.661   1.433
   44X2IT    N3 1382   0.110   2.865   1.403
   44X2IT   H15 1383   0.055   2.948   1.400
   44X2IT   H16 1384   0.201   2.866   1.449
   44X2IT    N2 1385   0.001   2.366   1.204
   44X2IT    C3 1386  -0.123   2.287   1.190
   44X2IT    C2 1387  -0.093   2.165   1.276
   44X2IT    H2 1388  -0.150   2.073   1.262
   44X2IT    N1 1389  -0.048   2.202   1.412
   44X2IT   H14 1390  -0.063   2.123   1.476
   44X2IT    C1 1391   0.051   2.163   1.310
   44X2IT    H1 1392   0.108   2.071   1.321
   44X2IT   C11 1393   0.118   2.281   1.242
   44X2IT    O3 1394   0.181   2.224   1.128
   44X2IT   C15 1395   0.219   2.313   1.023
   45X2IT   H18 1396   4.803   0.631   0.114
   45X2IT    N4 1397   4.792   0.677   0.203
   45X2IT   H17 1398   4.699   0.684   0.240
   45X2IT   C14 1399   4.898   0.667   0.290
   45X2IT    O5 1400   5.011   0.633   0.260
   45X2IT    O4 1401   4.859   0.706   0.415
   45X2IT   C13 1402   4.961   0.708   0.516
   45X2IT   C10 1403   5.043   0.838   0.511
   45X2IT    C9 1404   5.147   0.847   0.620
   45X2IT    C4 1405   5.126   0.960   0.697
   45X2IT    C5 1406   5.212   0.998   0.815
   45X2IT    O1 1407   5.188   1.103   0.876
   45X2IT    C6 1408   5.319   0.908   0.848
   45X2IT   C12 1409   5.409   0.940   0.966
   45X2IT    C7 1410   5.341   0.796   0.770
   45X2IT    C8 1411   5.254   0.758   0.650
   45X2IT    O2 1412   5.280   0.653   0.590
   45X2IT    N3 1413   5.440   0.707   0.792
   45X2IT   H15 1414   5.505   0.715   0.868
   45X2IT   H16 1415   5.445   0.627   0.729
   45X2IT    N2 1416   5.024   1.036   0.650
   45X2IT    C3 1417   4.930   1.118   0.727
   45X2IT    C2 1418   4.796   1.056   0.690
   45X2IT    H2 1419   4.704   1.113   0.704
   45X2IT    N1 1420   4.794   0.909   0.710
   45X2IT   H14 1421   4.698   0.877   0.719
   45X2IT    C1 1422   4.814   0.964   0.575
   45X2IT    H1 1423   4.739   0.950   0.498
   45X2IT   C11 1424   4.960   0.970   0.533
   45X2IT    O3 1425   4.959   1.055   0.419
   45X2IT   C15 1426   5.085   1.111   0.379
   46X2IT   H18 1427   3.678   1.102   3.635
   46X2IT    N4 1428   3.720   1.098   3.726
   46X2IT   H17 1429   3.765   1.011   3.752
   46X2IT   C14 1430   3.769   1.215   3.777
   46X2IT    O5 1431   3.741   1.326   3.736
   46X2IT    O4 1432   3.849   1.189   3.885
   46X2IT   C13 1433   3.902   1.305   3.954
   46X2IT   C10 1434   3.800   1.362   4.054
   46X2IT    C9 1435   3.855   1.479   4.133
   46X2IT    C4 1436   3.850   1.451   4.269
   46X2IT    C5 1437   3.897   1.546   4.375
   46X2IT    O1 1438   3.885   1.514   4.495
   46X2IT    C6 1439   3.953   1.671   4.330
   46X2IT   C12 1440   4.003   1.771   4.432
   46X2IT    C7 1441   3.957   1.699   4.195
   46X2IT    C8 1442   3.908   1.601   4.087
   46X2IT    O2 1443   3.921   1.635   3.968
   46X2IT    N3 1444   4.006   1.813   4.143
   46X2IT   H15 1445   4.044   1.887   4.200
   46X2IT   H16 1446   4.005   1.822   4.041
   46X2IT    N2 1447   3.790   1.332   4.295
   46X2IT    C3 1448   3.820   1.238   4.404
   46X2IT    C2 1449   3.860   1.112   4.327
   46X2IT    H2 1450   3.855   1.015   4.377
   46X2IT    N1 1451   3.964   1.138   4.226
   46X2IT   H14 1452   4.012   1.050   4.203
   46X2IT    C1 1453   3.823   1.127   4.184
   46X2IT    H1 1454   3.790   1.045   4.122
   46X2IT   C11 1455   3.755   1.262   4.168
   46X2IT    O3 1456   3.617   1.230   4.161
   46X2IT   C15 1457   3.524   1.337   4.184
   47X2IT   H18 1458   2.085   4.222   2.656
   47X2IT    N4 1459   2.152   4.295   2.639
   47X2IT   H17 1460   2.205   4.289   2.553
   47X2IT   C14 1461   2.122   4.418   2.690
   47X2IT    O5 1462   2.039   4.440   2.776
   47X2IT    O4 1463   2.203   4.513   2.634
   47X2IT   C13 1464   2.187   4.647   2.683
   47X2IT   C10 1465   2.267   4.669   2.813
   47X2IT    C9 1466   2.259   4.811   2.864
   47X2IT    C4 1467   2.386   4.866   2.874
   47X2IT    C5 1468   2.413   5.006   2.921
   47X2IT    O1 1469   2.530   5.045   2.930
   47X2IT    C6 1470   2.298   5.086   2.954
   47X2IT   C12 1471   2.319   5.229   3.002
   47X2IT    C7 1472   2.172   5.031   2.946
   47X2IT    C8 1473   2.145   4.888   2.898
   47X2IT    O2 1474   2.027   4.851   2.890
   47X2IT    N3 1475   2.059   5.098   2.977
   47X2IT   H15 1476   2.058   5.193   3.008
   47X2IT   H16 1477   1.971   5.047   2.965
   47X2IT    N2 1478   2.483   4.776   2.843
   47X2IT    C3 1479   2.612   4.801   2.779
   47X2IT    C2 1480   2.603   4.715   2.653
   47X2IT    H2 1481   2.694   4.686   2.601
   47X2IT    N1 1482   2.480   4.742   2.576
   47X2IT   H14 1483   2.493   4.711   2.479
   47X2IT    C1 1484   2.487   4.624   2.664
   47X2IT    H1 1485   2.486   4.524   2.623
   47X2IT   C11 1486   2.423   4.646   2.800
   47X2IT    O3 1487   2.469   4.538   2.879
   47X2IT   C15 1488   2.458   4.551   3.021
   48SOL     OW 1489   0.230   0.628   0.113
   48SOL    HW1 1490   0.137   0.626   0.150
   48SOL    HW2 1491   0.231   0.589   0.021
   49SOL     OW 1492   0.225   0.275   0.996
   49SOL    HW1 1493   0.260   0.258   1.088
   49SOL    HW2 1494   0.137   0.230   0.984
   50SOL     OW 1495   0.019   0.368   0.647
   50SOL    HW1 1496  -0.063   0.411   0.686
   50SOL    HW2 1497  -0.009   0.295   0.584
   51SOL     OW 1498   0.569   1.275   1.165
   51SOL    HW1 1499   0.476   1.268   1.128
   51SOL    HW2 1500   0.580   1.364   1.209
   52SOL     OW 1501   1.555   1.511   0.703
   52SOL    HW1 1502   1.498   1.495   0.784
   52SOL    HW2 1503   1.496   1.521   0.623
   53SOL     OW 1504   1.755   0.607   0.231
   53SOL    HW1 1505   1.743   0.594   0.132
   53SOL    HW2 1506   1.725   0.526   0.280
   54SOL     OW 1507   0.768   1.144   1.023
   54SOL    HW1 1508   0.690   1.161   1.083
   54SOL    HW2 1509   0.802   1.231   0.987
   55SOL     OW 1510   0.850   0.798   1.823
   55SOL    HW1 1511   0.846   0.874   1.888
   55SOL    HW2 1512   0.872   0.834   1.732
   56SOL     OW 1513   0.685   1.012   0.665
   56SOL    HW1 1514   0.754   0.996   0.735
   56SOL    HW2 1515   0.612   1.069   0.703
   57SOL     OW 1516   0.686   1.161   1.803
   57SOL    HW1 1517   0.746   1.240   1.817
   57SOL    HW2 1518   0.600   1.192   1.762
   58SOL     OW 1519   0.335   1.435   1.061
   58SOL    HW1 1520   0.257   1.404   1.008
   58SOL    HW2 1521   0.393   1.493   1.004
   59SOL     OW 1522   1.460   1.505   1.339
   59SOL    HW1 1523   1.484   1.599   1.365
   59SOL    HW2 1524   1.444   1.451   1.421
   60SOL     OW 1525   0.438   0.392   1.499
   60SOL    HW1 1526   0.520   0.336   1.508
   60SOL    HW2 1527   0.357   0.334   1.503
   61SOL     OW 1528   1.603   0.447   0.737
   61SOL    HW1 1529   1.529   0.493   0.687
   61SOL    HW2 1530   1.654   0.515   0.790
   62SOL     OW 1531   0.231   1.713   0.483
   62SOL    HW1 1532   0.265   1.790   0.537
   62SOL    HW2 1533   0.275   1.713   0.393
   63SOL     OW 1534   1.127   1.341   1.690
   63SOL    HW1 1535   1.174   1.341   1.778
   63SOL    HW2 1536   1.079   1.254   1.679
   64SOL     OW 1537   0.230   1.434   0.538
   64SOL    HW1 1538   0.204   1.530   0.538
   64SOL    HW2 1539   0.159   1.380   0.583
   65SOL     OW 1540   0.620   1.786   1.439
   65SOL    HW1 1541   0.528   1.769   1.474
   65SOL    HW2 1542   0.648   1.878   1.465
   66SOL     OW 1543   0.606   0.964   0.123
   66SOL    HW1 1544   0.613   1.048   0.069
   66SOL    HW2 1545   0.652   0.977   0.211
   67SOL     OW 1546   1.594   0.114   1.480
   67SOL    HW1 1547   1.576   0.181   1.408
   67SOL    HW2 1548   1.591   0.160   1.569
   68SOL     OW 1549   1.842   1.767   0.359
   68SOL    HW1 1550   1.896   1.738   0.439
   68SOL    HW2 1551   1.872   1.857   0.330
   69SOL     OW 1552   1.689   0.922   0.612
   69SOL    HW1 1553   1.784   0.893   0.620
   69SOL    HW2 1554   1.681   0.987   0.537
   70SOL     OW 1555   1.641   1.108   0.432
   70SOL    HW1 1556   1.727   1.110   0.380
   70SOL    HW2 1557   1.655   1.155   0.520
   71SOL     OW 1558   0.113   0.737   1.597
   71SOL    HW1 1559   0.201   0.724   1.642
   71SOL    HW2 1560   0.100   0.834   1.575
   72SOL     OW 1561   0.613   1.365   0.726
   72SOL    HW1 1562   0.564   1.278   0.735
   72SOL    HW2 1563   0.590   1.408   0.639
   73SOL     OW 1564   1.293   1.228   1.423
   73SOL    HW1 1565   1.330   1.155   1.365
   73SOL    HW2 1566   1.345   1.233   1.508
   74SOL     OW 1567   0.197   0.976   1.264
   74SOL    HW1 1568   0.286   0.931   1.250
   74SOL    HW2 1569   0.124   0.911   1.245
   75SOL     OW 1570   1.525   0.999   0.190
   75SOL    HW1 1571   1.462   0.923   0.203
   75SOL    HW2 1572   1.573   1.017   0.276
   76SOL     OW 1573   1.187   1.792   1.616
   76SOL    HW1 1574   1.211   1.852   1.540
   76SOL    HW2 1575   1.194   1.697   1.586
   77SOL     OW 1576   0.317   0.251   1.801
   77SOL    HW1 1577   0.388   0.322   1.807
   77SOL    HW2 1578   0.229   0.290   1.829
   78SOL     OW 1579   1.466   1.417   0.953
   78SOL    HW1 1580   1.407   1.423   1.033
   78SOL    HW2 1581   1.451   1.329   0.907
   79SOL     OW 1582   1.667   1.714   0.572
   79SOL    HW1 1583   1.626   1.691   0.484
   79SOL    HW2 1584   1.649   1.640   0.637
   80SOL     OW 1585   0.598   0.729   0.270
   80SOL    HW1 1586   0.622   0.798   0.202
   80SOL    HW2 1587   0.520   0.762   0.324
   81SOL     OW 1588   0.807   0.605   1.465
   81SOL    HW1 1589   0.760   0.602   1.554
   81SOL    HW2 1590   0.756   0.550   1.399
   82SOL     OW 1591   1.394   0.469   1.674
   82SOL    HW1 1592   1.374   0.512   1.762
   82SOL    HW2 1593   1.472   0.407   1.683
   83SOL     OW 1594   0.973   0.890   1.572
   83SOL    HW1 1595   1.019   0.806   1.543
   83SOL    HW2 1596   0.917   0.924   1.497
   84SOL     OW 1597   0.991   0.410   1.242
   84SOL    HW1 1598   0.914   0.444   1.296
   84SOL    HW2 1599   0.957   0.359   1.163
   85SOL     OW 1600   0.130   1.821   1.571
   85SOL    HW1 1601   0.120   1.806   1.670
   85SOL    HW2 1602   0.044   1.857   1.535
   86SOL     OW 1603   1.719   0.585   1.831
   86SOL    HW1 1604   1.693   0.674   1.795
   86SOL    HW2 1605   1.717   0.517   1.758
   87SOL     OW 1606   1.362   1.144   0.545
   87SOL    HW1 1607   1.445   1.115   0.497
   87SOL    HW2 1608   1.313   1.211   0.489
   88SOL     OW 1609   1.008   1.456   0.477
   88SOL    HW1 1610   0.962   1.528   0.425
   88SOL    HW2 1611   1.004   1.476   0.575
   89SOL     OW 1612   0.351   1.801   0.853
   89SOL    HW1 1613   0.401   1.715   0.859
   89SOL    HW2 1614   0.416   1.878   0.850
   90SOL     OW 1615   1.795   1.066   0.873
   90SOL    HW1 1616   1.733   1.051   0.797
   90SOL    HW2 1617   1.743   1.077   0.958
   91SOL     OW 1618   1.227   1.550   1.506
   91SOL    HW1 1619   1.233   1.473   1.570
   91SOL    HW2 1620   1.175   1.524   1.426
   92SOL     OW 1621   0.321   0.943   0.242
   92SOL    HW1 1622   0.403   0.982   0.200
   92SOL    HW2 1623   0.294   0.861   0.193
   93SOL     OW 1624   1.458   0.735   0.728
   93SOL    HW1 1625   1.453   0.670   0.803
   93SOL    HW2 1626   1.538   0.794   0.741
   94SOL     OW 1627   0.461   1.266   1.727
   94SOL    HW1 1628   0.411   1.267   1.641
   94SOL    HW2 1629   0.398   1.248   1.803
   95SOL     OW 1630   0.202   0.285   1.498
   95SOL    HW1 1631   0.122   0.345   1.485
   95SOL    HW2 1632   0.192   0.236   1.584
   96SOL     OW 1633   0.464   1.743   0.323
   96SOL    HW1 1634   0.497   1.782   0.409
   96SOL    HW2 1635   0.540   1.736   0.258
   97SOL     OW 1636   1.400   0.107   0.426
   97SOL    HW1 1637   1.376   0.070   0.336
   97SOL    HW2 1638   1.499   0.123   0.430
   98SOL     OW 1639   0.249   1.785   1.241
   98SOL    HW1 1640   0.306   1.720   1.291
   98SOL    HW2 1641   0.233   1.752   1.148
   99SOL     OW 1642   0.940   1.698   0.904
   99SOL    HW1 1643   1.020   1.641   0.925
   99SOL    HW2 1644   0.891   1.658   0.827
  100SOL     OW 1645   1.547   0.222   1.729
  100SOL    HW1 1646   1.542   0.259   1.821
  100SOL    HW2 1647   1.475   0.153   1.717
  101SOL     OW 1648   0.781   0.264   1.749
  101SOL    HW1 1649   0.848   0.203   1.792
  101SOL    HW2 1650   0.708   0.283   1.814
  102SOL     OW 1651   0.888   1.514   1.195
  102SOL    HW1 1652   0.865   1.489   1.101
  102SOL    HW2 1653   0.949   1.445   1.234
  103SOL     OW 1654   1.351   0.590   1.433
  103SOL    HW1 1655   1.379   0.547   1.518
  103SOL    HW2 1656   1.376   0.686   1.434
  104SOL     OW 1657   0.803   1.402   0.924
  104SOL    HW1 1658   0.893   1.416   0.882
  104SOL    HW2 1659   0.732   1.404   0.853
  105SOL     OW 1660   1.434   1.188   0.041
  105SOL    HW1 1661   1.466   1.112   0.098
  105SOL    HW2 1662   1.342   1.215   0.071
  106SOL     OW 1663   0.297   0.035   0.171
  106SOL    HW1 1664   0.346   0.119   0.150
  106SOL    HW2 1665   0.359  -0.030   0.216
  107SOL     OW 1666   1.076   0.683   1.464
  107SOL    HW1 1667   0.996   0.622   1.467
  107SOL    HW2 1668   1.157   0.630   1.440
  108SOL     OW 1669   1.227   1.570   0.793
  108SOL    HW1 1670   1.248   1.644   0.728
  108SOL    HW2 1671   1.295   1.570   0.866
  109SOL     OW 1672   0.459   1.152   0.741
  109SOL    HW1 1673   0.388   1.125   0.806
  109SOL    HW2 1674   0.433   1.124   0.648
  110SOL     OW 1675   1.032   0.549   0.016
  110SOL    HW1 1676   0.991   0.631  -0.023
  110SOL    HW2 1677   1.096   0.575   0.089
  111SOL     OW 1678   0.078   0.556   1.386
  111SOL    HW1 1679   0.170   0.555   1.345
  111SOL    HW2 1680   0.072   0.630   1.453
  112SOL     OW 1681   0.561   0.222   1.147
  112SOL    HW1 1682   0.599   0.138   1.184
  112SOL    HW2 1683   0.473   0.241   1.191
  113SOL     OW 1684   1.429   1.173   0.867
  113SOL    HW1 1685   1.374   1.089   0.860
  113SOL    HW2 1686   1.455   1.202   0.775
  114SOL     OW 1687   1.466   0.590   0.992
  114SOL    HW1 1688   1.436   0.495   0.999
  114SOL    HW2 1689   1.539   0.606   1.058
  115SOL     OW 1690   1.857   0.833   0.377
  115SOL    HW1 1691   1.899   0.769   0.441
  115SOL    HW2 1692   1.819   0.782   0.299
  116SOL     OW 1693   0.488   1.385   0.174
  116SOL    HW1 1694   0.401   1.370   0.221
  116SOL    HW2 1695   0.471   1.411   0.079
  117SOL     OW 1696   1.664   1.280   0.657
  117SOL    HW1 1697   1.763   1.288   0.671
  117SOL    HW2 1698   1.619   1.364   0.688
  118SOL     OW 1699   1.390   0.575   0.078
  118SOL    HW1 1700   1.336   0.554   0.159
  118SOL    HW2 1701   1.481   0.534   0.087
  119SOL     OW 1702   0.527   0.256   0.328
  119SOL    HW1 1703   0.554   0.197   0.253
  119SOL    HW2 1704   0.527   0.351   0.297
  120SOL     OW 1705   1.064   1.347   1.340
  120SOL    HW1 1706   0.984   1.324   1.395
  120SOL    HW2 1707   1.147   1.321   1.389
  121SOL     OW 1708   1.111   1.195   1.100
  121SOL    HW1 1709   1.071   1.239   1.181
  121SOL    HW2 1710   1.070   1.232   1.017
  122SOL     OW 1711   0.915   0.089   1.402
  122SOL    HW1 1712   0.940   0.069   1.307
  122SOL    HW2 1713   0.987   0.145   1.444
  123SOL     OW 1714   0.980   1.116   1.719
  123SOL    HW1 1715   0.881   1.122   1.729
  123SOL    HW2 1716   1.003   1.036   1.663
  124SOL     OW 1717   0.705   1.050   0.368
  124SOL    HW1 1718   0.691   1.057   0.467
  124SOL    HW2 1719   0.789   0.999   0.350
  125SOL     OW 1720   0.410   0.813   1.251
  125SOL    HW1 1721   0.496   0.825   1.301
  125SOL    HW2 1722   0.368   0.726   1.278
  126SOL     OW 1723   1.274   0.386   1.262
  126SOL    HW1 1724   1.295   0.460   1.326
  126SOL    HW2 1725   1.185   0.403   1.219
  127SOL     OW 1726   0.064   1.564   1.331
  127SOL    HW1 1727   0.018   1.646   1.297
  127SOL    HW2 1728   0.162   1.583   1.340
  128SOL     OW 1729   0.367   1.100   0.501
  128SOL    HW1 1730   0.360   1.183   0.445
  128SOL    HW2 1731   0.371   1.020   0.441
  129SOL     OW 1732   1.252   1.348   0.388
  129SOL    HW1 1733   1.302   1.425   0.428
  129SOL    HW2 1734   1.157   1.350   0.420
  130SOL     OW 1735   1.272   1.445   1.142
  130SOL    HW1 1736   1.319   1.458   1.229
  130SOL    HW2 1737   1.206   1.371   1.151
  131SOL     OW 1738   1.582   0.639   0.472
  131SOL    HW1 1739   1.551   0.700   0.545
  131SOL    HW2 1740   1.632   0.691   0.403
  132SOL     OW 1741   0.354   1.510   1.329
  132SOL    HW1 1742   0.333   1.466   1.242
  132SOL    HW2 1743   0.451   1.536   1.332
  133SOL     OW 1744   0.402   0.751   1.598
  133SOL    HW1 1745   0.470   0.806   1.551
  133SOL    HW2 1746   0.442   0.663   1.625
  134SOL     OW 1747   1.587   0.779   1.670
  134SOL    HW1 1748   1.495   0.817   1.665
  134SOL    HW2 1749   1.647   0.826   1.605
  135SOL     OW 1750   1.013   0.105   1.770
  135SOL    HW1 1751   1.019   0.190   1.718
  135SOL    HW2 1752   1.045   0.029   1.713
  136SOL     OW 1753   0.504   0.050   1.740
  136SOL    HW1 1754   0.462  -0.007   1.670
  136SOL    HW2 1755   0.438   0.119   1.772
  137SOL     OW 1756   1.360   0.862   1.045
  137SOL    HW1 1757   1.285   0.862   0.979
  137SOL    HW2 1758   1.397   0.770   1.054
  138SOL     OW 1759   1.209   0.525   0.275
  138SOL    HW1 1760   1.222   0.441   0.329
  138SOL    HW2 1761   1.180   0.599   0.335
  139SOL     OW 1762   0.307   0.213   1.231
  139SOL    HW1 1763   0.284   0.250   1.321
  139SOL    HW2 1764   0.277   0.118   1.225
  140SOL     OW 1765   0.037   1.310   1.282
  140SOL    HW1 1766   0.090   1.261   1.350
  140SOL    HW2 1767   0.059   1.408   1.287
  141SOL     OW 1768   1.728   0.935   1.854
  141SOL    HW1 1769   1.682   0.928   1.765
  141SOL    HW2 1770   1.666   0.979   1.920
  142SOL     OW 1771   1.622   0.367   0.374
  142SOL    HW1 1772   1.624   0.291   0.438
  142SOL    HW2 1773   1.574   0.444   0.414
  143SOL     OW 1774   0.980   1.573   1.700
  143SOL    HW1 1775   0.960   1.617   1.612
  143SOL    HW2 1776   1.019   1.482   1.684
  144SOL     OW 1777   0.350   0.898   1.804
  144SOL    HW1 1778   0.426   0.942   1.852
  144SOL    HW2 1779   0.385   0.851   1.722
  145SOL     OW 1780   1.540   0.274   0.125
  145SOL    HW1 1781   1.479   0.199   0.148
  145SOL    HW2 1782   1.562   0.326   0.208
  146SOL     OW 1783   1.303   0.838   0.042
  146SOL    HW1 1784   1.337   0.745   0.057
  146SOL    HW2 1785   1.321   0.865  -0.053
  147SOL     OW 1786   1.068   1.333   0.849
  147SOL    HW1 1787   1.075   1.249   0.794
  147SOL    HW2 1788   1.130   1.402   0.813
  148SOL     OW 1789   0.339   0.509   1.006
  148SOL    HW1 1790   0.287   0.426   0.989
  148SOL    HW2 1791   0.416   0.514   0.942
  149SOL     OW 1792   1.138   0.380   1.678
  149SOL    HW1 1793   1.093   0.443   1.742
  149SOL    HW2 1794   1.231   0.411   1.661
  150SOL     OW 1795   1.160   0.207   1.477
  150SOL    HW1 1796   1.160   0.271   1.554
  150SOL    HW2 1797   1.188   0.255   1.394
  151SOL     OW 1798   0.008   1.326   0.200
  151SOL    HW1 1799  -0.085   1.347   0.169
  151SOL    HW2 1800   0.018   1.227   0.213
  152SOL     OW 1801   0.088   1.801   0.927
  152SOL    HW1 1802   0.046   1.715   0.900
  152SOL    HW2 1803   0.182   1.804   0.893
  153SOL     OW 1804   0.504   1.568   0.910
  153SOL    HW1 1805   0.570   1.642   0.919
  153SOL    HW2 1806   0.548   1.489   0.868
  154SOL     OW 1807   1.002   0.796   1.238
  154SOL    HW1 1808   1.043   0.764   1.324
  154SOL    HW2 1809   0.906   0.769   1.235
  155SOL     OW 1810   0.040   0.544   1.114
  155SOL    HW1 1811   0.125   0.511   1.073
  155SOL    HW2 1812   0.053   0.559   1.212
  156SOL     OW 1813   0.189   0.520   1.722
  156SOL    HW1 1814   0.248   0.480   1.652
  156SOL    HW2 1815   0.131   0.591   1.681
  157SOL     OW 1816   1.369   0.950   1.660
  157SOL    HW1 1817   1.408   1.039   1.680
  157SOL    HW2 1818   1.379   0.930   1.563
  158SOL     OW 1819   1.657   0.604   1.206
  158SOL    HW1 1820   1.619   0.535   1.268
  158SOL    HW2 1821   1.739   0.568   1.162
  159SOL     OW 1822   0.252   1.564   1.744
  159SOL    HW1 1823   0.222   1.621   1.820
  159SOL    HW2 1824   0.245   1.467   1.770
  160SOL     OW 1825   0.671   0.464   1.269
  160SOL    HW1 1826   0.637   0.375   1.239
  160SOL    HW2 1827   0.697   0.518   1.189
  161SOL     OW 1828   0.930   1.678   1.465
  161SOL    HW1 1829   0.906   1.660   1.370
  161SOL    HW2 1830   0.960   1.772   1.475
  162SOL     OW 1831   0.473   0.500   0.191
  162SOL    HW1 1832   0.534   0.580   0.195
  162SOL    HW2 1833   0.378   0.531   0.198
  163SOL     OW 1834   0.159   1.137   1.466
  163SOL    HW1 1835   0.181   1.076   1.542
  163SOL    HW2 1836   0.169   1.088   1.380
  164SOL     OW 1837   1.347   1.059   1.234
  164SOL    HW1 1838   1.371   0.996   1.160
  164SOL    HW2 1839   1.257   1.099   1.216
  165SOL     OW 1840   1.302   0.855   0.309
  165SOL    HW1 1841   1.216   0.824   0.351
  165SOL    HW2 1842   1.298   0.841   0.210
  166SOL     OW 1843   1.759   1.747   1.154
  166SOL    HW1 1844   1.820   1.777   1.081
  166SOL    HW2 1845   1.721   1.658   1.132
  167SOL     OW 1846   1.252   1.731   1.128
  167SOL    HW1 1847   1.336   1.736   1.074
  167SOL    HW2 1848   1.229   1.635   1.146
  168SOL     OW 1849   0.083   1.258   1.022
  168SOL    HW1 1850   0.078   1.257   1.122
  168SOL    HW2 1851   0.000   1.217   0.984
  169SOL     OW 1852   0.688   1.662   1.716
  169SOL    HW1 1853   0.632   1.743   1.725
  169SOL    HW2 1854   0.740   1.666   1.630
  170SOL     OW 1855   1.726   0.135   0.523
  170SOL    HW1 1856   1.799   0.118   0.456
  170SOL    HW2 1857   1.695   0.048   0.561
  171SOL     OW 1858   1.388   1.573   0.477
  171SOL    HW1 1859   1.455   1.585   0.403
  171SOL    HW2 1860   1.348   1.662   0.500
  172SOL     OW 1861   0.130   1.794   1.851
  172SOL    HW1 1862   0.089   1.720   1.904
  172SOL    HW2 1863   0.194   1.845   1.909
  173SOL     OW 1864   1.280   0.927   0.672
  173SOL    HW1 1865   1.340   0.846   0.674
  173SOL    HW2 1866   1.320   0.996   0.612
  174SOL     OW 1867   0.830   1.273   1.422
  174SOL    HW1 1868   0.825   1.306   1.517
  174SOL    HW2 1869   0.744   1.292   1.376
  175SOL     OW 1870   0.672   1.616   0.154
  175SOL    HW1 1871   0.681   1.626   0.055
  175SOL    HW2 1872   0.632   1.527   0.175
  176SOL     OW 1873   1.650   1.720   1.394
  176SOL    HW1 1874   1.703   1.730   1.310
  176SOL    HW2 1875   1.623   1.810   1.428
  177SOL     OW 1876   1.841   0.175   0.963
  177SOL    HW1 1877   1.880   0.090   0.927
  177SOL    HW2 1878   1.743   0.177   0.944
  178SOL     OW 1879   0.263   0.326   0.720
  178SOL    HW1 1880   0.184   0.377   0.686
  178SOL    HW2 1881   0.254   0.311   0.818
  179SOL     OW 1882   0.822   1.002   1.372
  179SOL    HW1 1883   0.862   1.001   1.280
  179SOL    HW2 1884   0.832   1.094   1.412
  180SOL     OW 1885   0.916   0.910   0.291
  180SOL    HW1 1886   0.979   0.948   0.223
  180SOL    HW2 1887   0.956   0.827   0.330
  181SOL     OW 1888   0.372   1.288   1.490
  181SOL    HW1 1889   0.359   1.381   1.456
  181SOL    HW2 1890   0.288   1.236   1.477
  182SOL     OW 1891   1.039   1.098   0.696
  182SOL    HW1 1892   0.969   1.051   0.750
  182SOL    HW2 1893   1.098   1.030   0.653
  183SOL     OW 1894   0.590   1.487   0.491
  183SOL    HW1 1895   0.632   1.429   0.421
  183SOL    HW2 1896   0.546   1.566   0.447
  184SOL     OW 1897   1.709   0.385   1.381
  184SOL    HW1 1898   1.782   0.454   1.385
  184SOL    HW2 1899   1.737   0.310   1.322
  185SOL     OW 1900   0.255   1.348   0.290
  185SOL    HW1 1901   0.159   1.349   0.263
  185SOL    HW2 1902   0.267   1.401   0.374
  186SOL     OW 1903   0.105   1.013   1.726
  186SOL    HW1 1904   0.028   0.980   1.780
  186SOL    HW2 1905   0.190   0.983   1.768
  187SOL     OW 1906   0.672   0.203   1.489
  187SOL    HW1 1907   0.762   0.187   1.449
  187SOL    HW2 1908   0.680   0.208   1.588
  188SOL     OW 1909   0.075   0.345   0.033
  188SOL    HW1 1910  -0.017   0.317   0.004
  188SOL    HW2 1911   0.106   0.422  -0.023
  189SOL     OW 1912   1.440   0.856   1.398
  189SOL    HW1 1913   1.383   0.908   1.335
  189SOL    HW2 1914   1.536   0.868   1.374
  190SOL     OW 1915   0.072   0.166   0.318
  190SOL    HW1 1916   0.055   0.249   0.264
  190SOL    HW2 1917   0.162   0.129   0.296
  191SOL     OW 1918   1.183   1.335   0.119
  191SOL    HW1 1919   1.084   1.324   0.121
  191SOL    HW2 1920   1.217   1.350   0.212
  192SOL     OW 1921   0.613   0.842   1.431
  192SOL    HW1 1922   0.669   0.923   1.414
  192SOL    HW2 1923   0.672   0.762   1.434
  193SOL     OW 1924   1.493   1.767   0.959
  193SOL    HW1 1925   1.526   1.831   0.890
  193SOL    HW2 1926   1.559   1.761   1.034
  194SOL     OW 1927   0.716   0.565   1.708
  194SOL    HW1 1928   0.735   0.630   1.782
  194SOL    HW2 1929   0.776   0.485   1.717
  195SOL     OW 1930   1.450   1.220   1.633
  195SOL    HW1 1931   1.441   1.210   1.732
  195SOL    HW2 1932   1.546   1.213   1.607
  196SOL     OW 1933   0.390   1.741   1.560
  196SOL    HW1 1934   0.299   1.782   1.558
  196SOL    HW2 1935   0.383   1.647   1.592
  197SOL     OW 1936   1.674   0.883   1.254
  197SOL    HW1 1937   1.647   0.794   1.217
  197SOL    HW2 1938   1.675   0.951   1.181
  198SOL     OW 1939   1.777   0.342   1.642
  198SOL    HW1 1940   1.760   0.373   1.548
  198SOL    HW2 1941   1.693   0.305   1.680
  199SOL     OW 1942   1.730   0.934   1.517
  199SOL    HW1 1943   1.768   1.025   1.532
  199SOL    HW2 1944   1.722   0.917   1.418
  200SOL     OW 1945   0.859   1.374   0.016
  200SOL    HW1 1946   0.813   1.389   0.104
  200SOL    HW2 1947   0.903   1.459  -0.014
  201SOL     OW 1948   0.859   0.956   0.861
  201SOL    HW1 1949   0.913   0.887   0.909
  201SOL    HW2 1950   0.827   1.025   0.927
  202SOL     OW 1951   1.083   0.984   0.087
  202SOL    HW1 1952   1.060   1.037   0.005
  202SOL    HW2 1953   1.164   0.928   0.068
  203SOL     OW 1954   1.861   1.569   0.851
  203SOL    HW1 1955   1.790   1.557   0.781
  203SOL    HW2 1956   1.862   1.490   0.911
  204SOL     OW 1957   0.221   1.314   1.844
  204SOL    HW1 1958   0.156   1.241   1.823
  204SOL    HW2 1959   0.225   1.328   1.942
  205SOL     OW 1960   0.079   1.240   0.653
  205SOL    HW1 1961   0.078   1.193   0.741
  205SOL    HW2 1962   0.161   1.212   0.602
  206SOL     OW 1963   0.672   1.391   1.624
  206SOL    HW1 1964   0.594   1.341   1.662
  206SOL    HW2 1965   0.669   1.486   1.655
  207SOL     OW 1966   1.824   0.192   1.227
  207SOL    HW1 1967   1.820   0.102   1.271
  207SOL    HW2 1968   1.827   0.181   1.128
  208SOL     OW 1969   0.428   0.424   0.520
  208SOL    HW1 1970   0.458   0.352   0.458
  208SOL    HW2 1971   0.389   0.384   0.603
  209SOL     OW 1972   0.317   0.547   1.280
  209SOL    HW1 1973   0.355   0.488   1.352
  209SOL    HW2 1974   0.357   0.521   1.192
  210SOL     OW 1975   0.812   1.586   0.687
  210SOL    HW1 1976   0.844   1.596   0.593
  210SOL    HW2 1977   0.733   1.524   0.689
  211SOL     OW 1978   1.424   0.214   1.112
  211SOL    HW1 1979   1.476   0.149   1.167
  211SOL    HW2 1980   1.375   0.277   1.173
  212SOL     OW 1981   1.001   0.034   1.154
  212SOL    HW1 1982   0.938  -0.038   1.123
  212SOL    HW2 1983   1.094  -0.002   1.154
  213SOL     OW 1984   0.770   1.330   0.301
  213SOL    HW1 1985   0.724   1.243   0.318
  213SOL    HW2 1986   0.861   1.327   0.342
  214SOL     OW 1987   0.618   1.567   1.284
  214SOL    HW1 1988   0.613   1.649   1.341
  214SOL    HW2 1989   0.707   1.564   1.239
  215SOL     OW 1990   1.352   0.052   0.168
  215SOL    HW1 1991   1.387   0.011   0.084
  215SOL    HW2 1992   1.262   0.014   0.188
  216SOL     OW 1993   1.593   0.221   0.882
  216SOL    HW1 1994   1.509   0.220   0.936
  216SOL    HW2 1995   1.595   0.304   0.826
  217SOL     OW 1996   0.875   1.646   0.337
  217SOL    HW1 1997   0.798   1.611   0.283
  217SOL    HW2 1998   0.843   1.717   0.399
  218SOL     OW 1999   0.230   0.628   1.975
  218SOL    HW1 2000   0.137   0.626   2.012
  218SOL    HW2 2001   0.231   0.589   1.883
  219SOL     OW 2002   0.225   0.275   2.858
  219SOL    HW1 2003   0.260   0.258   2.950
  219SOL    HW2 2004   0.137   0.230   2.846
  220SOL     OW 2005   0.019   0.368   2.509
  220SOL    HW1 2006  -0.063   0.411   2.548
  220SOL    HW2 2007  -0.009   0.295   2.446
  221SOL     OW 2008   0.569   1.275   3.027
  221SOL    HW1 2009   0.476   1.268   2.990
  221SOL    HW2 2010   0.580   1.364   3.071
  222SOL     OW 2011   1.555   1.511   2.565
  222SOL    HW1 2012   1.498   1.495   2.646
  222SOL    HW2 2013   1.496   1.521   2.485
  223SOL     OW 2014   1.135   0.703   2.579
  223SOL    HW1 2015   1.192   0.781   2.554
  223SOL    HW2 2016   1.075   0.729   2.655
  224SOL     OW 2017   1.755   0.607   2.093
  224SOL    HW1 2018   1.743   0.594   1.994
  224SOL    HW2 2019   1.725   0.526   2.142
  225SOL     OW 2020   0.768   1.144   2.885
  225SOL    HW1 2021   0.690   1.161   2.945
  225SOL    HW2 2022   0.802   1.231   2.849
  226SOL     OW 2023   0.685   1.012   2.527
  226SOL    HW1 2024   0.754   0.996   2.597
  226SOL    HW2 2025   0.612   1.069   2.565
  227SOL     OW 2026   0.686   1.161   3.665
  227SOL    HW1 2027   0.746   1.240   3.679
  227SOL    HW2 2028   0.600   1.192   3.624
  228SOL     OW 2029   0.335   1.435   2.923
  228SOL    HW1 2030   0.257   1.404   2.870
  228SOL    HW2 2031   0.393   1.493   2.866
  229SOL     OW 2032   1.460   1.505   3.201
  229SOL    HW1 2033   1.484   1.599   3.227
  229SOL    HW2 2034   1.444   1.451   3.283
  230SOL     OW 2035   0.438   0.392   3.361
  230SOL    HW1 2036   0.520   0.336   3.370
  230SOL    HW2 2037   0.357   0.334   3.365
  231SOL     OW 2038   0.231   1.713   2.345
  231SOL    HW1 2039   0.265   1.790   2.399
  231SOL    HW2 2040   0.275   1.713   2.255
  232SOL     OW 2041   0.230   1.434   2.400
  232SOL    HW1 2042   0.204   1.530   2.400
  232SOL    HW2 2043   0.159   1.380   2.445
  233SOL     OW 2044   0.240   1.091   2.748
  233SOL    HW1 2045   0.254   1.007   2.800
  233SOL    HW2 2046   0.185   1.155   2.803
  234SOL     OW 2047   0.620   1.786   3.301
  234SOL    HW1 2048   0.528   1.769   3.336
  234SOL    HW2 2049   0.648   1.878   3.327
  235SOL     OW 2050   0.606   0.964   1.985
  235SOL    HW1 2051   0.613   1.048   1.931
  235SOL    HW2 2052   0.652   0.977   2.073
  236SOL     OW 2053   0.122   0.643   2.425
  236SOL    HW1 2054   0.077   0.555   2.442
  236SOL    HW2 2055   0.121   0.697   2.509
  237SOL     OW 2056   1.842   1.767   2.221
  237SOL    HW1 2057   1.896   1.738   2.301
  237SOL    HW2 2058   1.872   1.857   2.192
  238SOL     OW 2059   0.027   1.596   1.979
  238SOL    HW1 2060   0.008   1.500   2.000
  238SOL    HW2 2061  -0.006   1.654   2.054
  239SOL     OW 2062   1.689   0.922   2.474
  239SOL    HW1 2063   1.784   0.893   2.482
  239SOL    HW2 2064   1.681   0.987   2.399
  240SOL     OW 2065   1.641   1.108   2.294
  240SOL    HW1 2066   1.727   1.110   2.242
  240SOL    HW2 2067   1.655   1.155   2.382
  241SOL     OW 2068   0.113   0.737   3.459
  241SOL    HW1 2069   0.201   0.724   3.504
  241SOL    HW2 2070   0.100   0.834   3.437
  242SOL     OW 2071   0.613   1.365   2.588
  242SOL    HW1 2072   0.564   1.278   2.597
  242SOL    HW2 2073   0.590   1.408   2.501
  243SOL     OW 2074   0.809   0.004   2.364
  243SOL    HW1 2075   0.849   0.095   2.355
  243SOL    HW2 2076   0.709   0.012   2.370
  244SOL     OW 2077   0.197   0.976   3.126
  244SOL    HW1 2078   0.286   0.931   3.112
  244SOL    HW2 2079   0.124   0.911   3.107
  245SOL     OW 2080   1.525   0.999   2.052
  245SOL    HW1 2081   1.462   0.923   2.065
  245SOL    HW2 2082   1.573   1.017   2.138
  246SOL     OW 2083   1.187   1.792   3.478
  246SOL    HW1 2084   1.211   1.852   3.402
  246SOL    HW2 2085   1.194   1.697   3.448
  247SOL     OW 2086   0.317   0.251   3.663
  247SOL    HW1 2087   0.388   0.322   3.669
  247SOL    HW2 2088   0.229   0.290   3.691
  248SOL     OW 2089   1.466   1.417   2.815
  248SOL    HW1 2090   1.407   1.423   2.895
  248SOL    HW2 2091   1.451   1.329   2.769
  249SOL     OW 2092   1.667   1.714   2.434
  249SOL    HW1 2093   1.626   1.691   2.346
  249SOL    HW2 2094   1.649   1.640   2.499
  250SOL     OW 2095   0.598   0.729   2.132
  250SOL    HW1 2096   0.622   0.798   2.064
  250SOL    HW2 2097   0.520   0.762   2.186
  251SOL     OW 2098   1.576   1.662   2.169
  251SOL    HW1 2099   1.665   1.708   2.172
  251SOL    HW2 2100   1.555   1.638   2.074
  252SOL     OW 2101   0.807   0.605   3.327
  252SOL    HW1 2102   0.760   0.602   3.416
  252SOL    HW2 2103   0.756   0.550   3.261
  253SOL     OW 2104   1.394   0.469   3.536
  253SOL    HW1 2105   1.374   0.512   3.624
  253SOL    HW2 2106   1.472   0.407   3.545
  254SOL     OW 2107   0.991   0.410   3.104
  254SOL    HW1 2108   0.914   0.444   3.158
  254SOL    HW2 2109   0.957   0.359   3.025
  255SOL     OW 2110   1.041   0.701   2.291
  255SOL    HW1 2111   1.067   0.697   2.387
  255SOL    HW2 2112   0.956   0.650   2.277
  256SOL     OW 2113   0.076   0.811   2.651
  256SOL    HW1 2114   0.175   0.799   2.660
  256SOL    HW2 2115   0.052   0.906   2.672
  257SOL     OW 2116   0.130   1.821   3.433
  257SOL    HW1 2117   0.120   1.806   3.532
  257SOL    HW2 2118   0.044   1.857   3.397
  258SOL     OW 2119   0.865   0.348   2.057
  258SOL    HW1 2120   0.924   0.411   2.008
  258SOL    HW2 2121   0.884   0.254   2.028
  259SOL     OW 2122   1.719   0.585   3.693
  259SOL    HW1 2123   1.693   0.674   3.657
  259SOL    HW2 2124   1.717   0.517   3.620
  260SOL     OW 2125   1.362   1.144   2.407
  260SOL    HW1 2126   1.445   1.115   2.359
  260SOL    HW2 2127   1.313   1.211   2.351
  261SOL     OW 2128   0.550   0.196   2.747
  261SOL    HW1 2129   0.545   0.191   2.847
  261SOL    HW2 2130   0.552   0.292   2.718
  262SOL     OW 2131   1.008   1.456   2.339
  262SOL    HW1 2132   0.962   1.528   2.287
  262SOL    HW2 2133   1.004   1.476   2.437
  263SOL     OW 2134   0.351   1.801   2.715
  263SOL    HW1 2135   0.401   1.715   2.721
  263SOL    HW2 2136   0.416   1.878   2.712
  264SOL     OW 2137   1.795   1.066   2.735
  264SOL    HW1 2138   1.733   1.051   2.659
  264SOL    HW2 2139   1.743   1.077   2.820
  265SOL     OW 2140   1.227   1.550   3.368
  265SOL    HW1 2141   1.233   1.473   3.432
  265SOL    HW2 2142   1.175   1.524   3.288
  266SOL     OW 2143   0.321   0.943   2.104
  266SOL    HW1 2144   0.403   0.982   2.062
  266SOL    HW2 2145   0.294   0.861   2.055
  267SOL     OW 2146   1.458   0.735   2.590
  267SOL    HW1 2147   1.453   0.670   2.665
  267SOL    HW2 2148   1.538   0.794   2.603
  268SOL     OW 2149   0.461   1.266   3.589
  268SOL    HW1 2150   0.411   1.267   3.503
  268SOL    HW2 2151   0.398   1.248   3.665
  269SOL     OW 2152   1.111   1.776   2.099
  269SOL    HW1 2153   1.051   1.714   2.149
  269SOL    HW2 2154   1.142   1.732   2.014
  270SOL     OW 2155   0.202   0.285   3.360
  270SOL    HW1 2156   0.122   0.345   3.347
  270SOL    HW2 2157   0.192   0.236   3.446
  271SOL     OW 2158   1.632   1.377   1.943
  271SOL    HW1 2159   1.600   1.471   1.933
  271SOL    HW2 2160   1.556   1.314   1.931
  272SOL     OW 2161   0.464   1.743   2.185
  272SOL    HW1 2162   0.497   1.782   2.271
  272SOL    HW2 2163   0.540   1.736   2.120
  273SOL     OW 2164   1.400   0.107   2.288
  273SOL    HW1 2165   1.376   0.070   2.198
  273SOL    HW2 2166   1.499   0.123   2.292
  274SOL     OW 2167   0.249   1.785   3.103
  274SOL    HW1 2168   0.306   1.720   3.153
  274SOL    HW2 2169   0.233   1.752   3.010
  275SOL     OW 2170   0.940   1.698   2.766
  275SOL    HW1 2171   1.020   1.641   2.787
  275SOL    HW2 2172   0.891   1.658   2.689
  276SOL     OW 2173   0.382   0.700   2.342
  276SOL    HW1 2174   0.427   0.610   2.339
  276SOL    HW2 2175   0.288   0.689   2.375
  277SOL     OW 2176   1.547   0.222   3.591
  277SOL    HW1 2177   1.542   0.259   3.683
  277SOL    HW2 2178   1.475   0.153   3.579
  278SOL     OW 2179   0.614   0.122   1.979
  278SOL    HW1 2180   0.712   0.100   1.986
  278SOL    HW2 2181   0.583   0.105   1.886
  279SOL     OW 2182   0.781   0.264   3.611
  279SOL    HW1 2183   0.848   0.203   3.654
  279SOL    HW2 2184   0.708   0.283   3.676
  280SOL     OW 2185   1.351   0.590   3.295
  280SOL    HW1 2186   1.379   0.547   3.380
  280SOL    HW2 2187   1.376   0.686   3.296
  281SOL     OW 2188   0.803   1.402   2.786
  281SOL    HW1 2189   0.893   1.416   2.744
  281SOL    HW2 2190   0.732   1.404   2.715
  282SOL     OW 2191   0.922   0.503   2.761
  282SOL    HW1 2192   0.897   0.494   2.665
  282SOL    HW2 2193   0.970   0.421   2.792
  283SOL     OW 2194   0.539   0.064   2.374
  283SOL    HW1 2195   0.458   0.065   2.432
  283SOL    HW2 2196   0.542   0.147   2.319
  284SOL     OW 2197   1.434   1.188   1.903
  284SOL    HW1 2198   1.466   1.112   1.960
  284SOL    HW2 2199   1.342   1.215   1.933
  285SOL     OW 2200   0.297   0.035   2.033
  285SOL    HW1 2201   0.346   0.119   2.012
  285SOL    HW2 2202   0.359  -0.030   2.078
  286SOL     OW 2203   0.935   0.236   2.342
  286SOL    HW1 2204   0.887   0.277   2.264
  286SOL    HW2 2205   1.034   0.234   2.323
  287SOL     OW 2206   1.076   0.683   3.326
  287SOL    HW1 2207   0.996   0.622   3.329
  287SOL    HW2 2208   1.157   0.630   3.302
  288SOL     OW 2209   1.227   1.570   2.655
  288SOL    HW1 2210   1.248   1.644   2.590
  288SOL    HW2 2211   1.295   1.570   2.728
  289SOL     OW 2212   0.459   1.152   2.603
  289SOL    HW1 2213   0.388   1.125   2.668
  289SOL    HW2 2214   0.433   1.124   2.510
  290SOL     OW 2215   1.271   1.797   2.453
  290SOL    HW1 2216   1.315   1.861   2.389
  290SOL    HW2 2217   1.221   1.849   2.523
  291SOL     OW 2218   1.032   0.549   1.878
  291SOL    HW1 2219   0.991   0.631   1.839
  291SOL    HW2 2220   1.096   0.575   1.951
  292SOL     OW 2221   0.078   0.556   3.248
  292SOL    HW1 2222   0.170   0.555   3.207
  292SOL    HW2 2223   0.072   0.630   3.315
  293SOL     OW 2224   0.561   0.222   3.009
  293SOL    HW1 2225   0.599   0.138   3.046
  293SOL    HW2 2226   0.473   0.241   3.053
  294SOL     OW 2227   0.866   0.454   2.504
  294SOL    HW1 2228   0.834   0.526   2.442
  294SOL    HW2 2229   0.890   0.373   2.451
  295SOL     OW 2230   1.429   1.173   2.729
  295SOL    HW1 2231   1.374   1.089   2.722
  295SOL    HW2 2232   1.455   1.202   2.637
  296SOL     OW 2233   1.857   0.833   2.239
  296SOL    HW1 2234   1.899   0.769   2.303
  296SOL    HW2 2235   1.819   0.782   2.161
  297SOL     OW 2236   0.488   1.385   2.036
  297SOL    HW1 2237   0.401   1.370   2.083
  297SOL    HW2 2238   0.471   1.411   1.941
  298SOL     OW 2239   1.664   1.280   2.519
  298SOL    HW1 2240   1.763   1.288   2.533
  298SOL    HW2 2241   1.619   1.364   2.550
  299SOL     OW 2242   1.390   0.575   1.940
  299SOL    HW1 2243   1.336   0.554   2.021
  299SOL    HW2 2244   1.481   0.534   1.949
  300SOL     OW 2245   0.527   0.256   2.190
  300SOL    HW1 2246   0.554   0.197   2.115
  300SOL    HW2 2247   0.527   0.351   2.159
  301SOL     OW 2248   1.754   1.223   3.450
  301SOL    HW1 2249   1.845   1.184   3.437
  301SOL    HW2 2250   1.762   1.319   3.474
  302SOL     OW 2251   1.592   1.629   3.487
  302SOL    HW1 2252   1.619   1.663   3.397
  302SOL    HW2 2253   1.671   1.591   3.533
  303SOL     OW 2254   1.638   1.099   2.941
  303SOL    HW1 2255   1.643   1.180   3.000
  303SOL    HW2 2256   1.552   1.101   2.890
  304SOL     OW 2257   0.915   0.089   3.264
  304SOL    HW1 2258   0.940   0.069   3.169
  304SOL    HW2 2259   0.987   0.145   3.306
  305SOL     OW 2260   0.705   1.050   2.230
  305SOL    HW1 2261   0.691   1.057   2.329
  305SOL    HW2 2262   0.789   0.999   2.212
  306SOL     OW 2263   0.410   0.813   3.113
  306SOL    HW1 2264   0.496   0.825   3.163
  306SOL    HW2 2265   0.368   0.726   3.140
  307SOL     OW 2266   0.064   1.564   3.193
  307SOL    HW1 2267   0.018   1.646   3.159
  307SOL    HW2 2268   0.162   1.583   3.202
  308SOL     OW 2269   0.367   1.100   2.363
  308SOL    HW1 2270   0.360   1.183   2.307
  308SOL    HW2 2271   0.371   1.020   2.303
  309SOL     OW 2272   0.566   0.537   2.727
  309SOL    HW1 2273   0.578   0.603   2.653
  309SOL    HW2 2274   0.612   0.571   2.810
  310SOL     OW 2275   1.252   1.348   2.250
  310SOL    HW1 2276   1.302   1.425   2.290
  310SOL    HW2 2277   1.157   1.350   2.282
  311SOL     OW 2278   1.582   0.639   2.334
  311SOL    HW1 2279   1.551   0.700   2.407
  311SOL    HW2 2280   1.632   0.691   2.265
  312SOL     OW 2281   0.354   1.510   3.191
  312SOL    HW1 2282   0.333   1.466   3.104
  312SOL    HW2 2283   0.451   1.536   3.194
  313SOL     OW 2284   0.402   0.751   3.460
  313SOL    HW1 2285   0.470   0.806   3.413
  313SOL    HW2 2286   0.442   0.663   3.487
  314SOL     OW 2287   1.587   0.779   3.532
  314SOL    HW1 2288   1.495   0.817   3.527
  314SOL    HW2 2289   1.647   0.826   3.467
  315SOL     OW 2290   1.013   0.105   3.632
  315SOL    HW1 2291   1.019   0.190   3.580
  315SOL    HW2 2292   1.045   0.029   3.575
  316SOL     OW 2293   0.504   0.050   3.602
  316SOL    HW1 2294   0.462  -0.007   3.532
  316SOL    HW2 2295   0.438   0.119   3.634
  317SOL     OW 2296   0.573   0.870   2.891
  317SOL    HW1 2297   0.617   0.959   2.882
  317SOL    HW2 2298   0.510   0.870   2.968
  318SOL     OW 2299   1.209   0.525   2.137
  318SOL    HW1 2300   1.222   0.441   2.191
  318SOL    HW2 2301   1.180   0.599   2.197
  319SOL     OW 2302   0.307   0.213   3.093
  319SOL    HW1 2303   0.284   0.250   3.183
  319SOL    HW2 2304   0.277   0.118   3.087
  320SOL     OW 2305   0.037   1.310   3.144
  320SOL    HW1 2306   0.090   1.261   3.212
  320SOL    HW2 2307   0.059   1.408   3.149
  321SOL     OW 2308   0.732   0.634   2.926
  321SOL    HW1 2309   0.791   0.608   2.850
  321SOL    HW2 2310   0.704   0.730   2.915
  322SOL     OW 2311   1.728   0.935   3.716
  322SOL    HW1 2312   1.682   0.928   3.627
  322SOL    HW2 2313   1.666   0.979   3.782
  323SOL     OW 2314   0.307   0.063   2.480
  323SOL    HW1 2315   0.296   0.157   2.513
  323SOL    HW2 2316   0.302   0.000   2.557
  324SOL     OW 2317   1.622   0.367   2.236
  324SOL    HW1 2318   1.624   0.291   2.300
  324SOL    HW2 2319   1.574   0.444   2.276
  325SOL     OW 2320   1.859   1.518   3.467
  325SOL    HW1 2321   1.873   1.545   3.372
  325SOL    HW2 2322   1.942   1.540   3.520
  326SOL     OW 2323   0.350   0.898   3.666
  326SOL    HW1 2324   0.426   0.942   3.714
  326SOL    HW2 2325   0.385   0.851   3.584
  327SOL     OW 2326   1.540   0.274   1.987
  327SOL    HW1 2327   1.479   0.199   2.010
  327SOL    HW2 2328   1.562   0.326   2.070
  328SOL     OW 2329   1.303   0.838   1.904
  328SOL    HW1 2330   1.337   0.745   1.919
  328SOL    HW2 2331   1.321   0.865   1.809
  329SOL     OW 2332   1.068   1.333   2.711
  329SOL    HW1 2333   1.075   1.249   2.656
  329SOL    HW2 2334   1.130   1.402   2.675
  330SOL     OW 2335   0.319   0.810   2.811
  330SOL    HW1 2336   0.412   0.846   2.816
  330SOL    HW2 2337   0.313   0.725   2.863
  331SOL     OW 2338   0.339   0.509   2.868
  331SOL    HW1 2339   0.287   0.426   2.851
  331SOL    HW2 2340   0.416   0.514   2.804
  332SOL     OW 2341   1.138   0.380   3.540
  332SOL    HW1 2342   1.093   0.443   3.604
  332SOL    HW2 2343   1.231   0.411   3.523
  333SOL     OW 2344   1.160   0.207   3.339
  333SOL    HW1 2345   1.160   0.271   3.416
  333SOL    HW2 2346   1.188   0.255   3.256
  334SOL     OW 2347   0.008   1.326   2.062
  334SOL    HW1 2348  -0.085   1.347   2.031
  334SOL    HW2 2349   0.018   1.227   2.075
  335SOL     OW 2350   0.088   1.801   2.789
  335SOL    HW1 2351   0.046   1.715   2.762
  335SOL    HW2 2352   0.182   1.804   2.755
  336SOL     OW 2353   0.504   1.568   2.772
  336SOL    HW1 2354   0.570   1.642   2.781
  336SOL    HW2 2355   0.548   1.489   2.730
  337SOL     OW 2356   0.040   0.544   2.976
  337SOL    HW1 2357   0.125   0.511   2.935
  337SOL    HW2 2358   0.053   0.559   3.074
  338SOL     OW 2359   0.189   0.520   3.584
  338SOL    HW1 2360   0.248   0.480   3.514
  338SOL    HW2 2361   0.131   0.591   3.543
  339SOL     OW 2362   1.369   0.950   3.522
  339SOL    HW1 2363   1.408   1.039   3.542
  339SOL    HW2 2364   1.379   0.930   3.425
  340SOL     OW 2365   0.815   0.572   2.187
  340SOL    HW1 2366   0.822   0.483   2.141
  340SOL    HW2 2367   0.721   0.606   2.179
  341SOL     OW 2368   0.252   1.564   3.606
  341SOL    HW1 2369   0.222   1.621   3.682
  341SOL    HW2 2370   0.245   1.467   3.632
  342SOL     OW 2371   0.671   0.464   3.131
  342SOL    HW1 2372   0.637   0.375   3.101
  342SOL    HW2 2373   0.697   0.518   3.051
  343SOL     OW 2374   0.930   1.678   3.327
  343SOL    HW1 2375   0.906   1.660   3.232
  343SOL    HW2 2376   0.960   1.772   3.337
  344SOL     OW 2377   0.473   0.500   2.053
  344SOL    HW1 2378   0.534   0.580   2.057
  344SOL    HW2 2379   0.378   0.531   2.060
  345SOL     OW 2380   0.159   1.137   3.328
  345SOL    HW1 2381   0.181   1.076   3.404
  345SOL    HW2 2382   0.169   1.088   3.242
  346SOL     OW 2383   1.347   1.059   3.096
  346SOL    HW1 2384   1.371   0.996   3.022
  346SOL    HW2 2385   1.257   1.099   3.078
  347SOL     OW 2386   1.302   0.855   2.171
  347SOL    HW1 2387   1.216   0.824   2.213
  347SOL    HW2 2388   1.298   0.841   2.072
  348SOL     OW 2389   1.759   1.747   3.016
  348SOL    HW1 2390   1.820   1.777   2.943
  348SOL    HW2 2391   1.721   1.658   2.994
  349SOL     OW 2392   1.252   1.731   2.990
  349SOL    HW1 2393   1.336   1.736   2.936
  349SOL    HW2 2394   1.229   1.635   3.008
  350SOL     OW 2395   0.083   1.258   2.884
  350SOL    HW1 2396   0.078   1.257   2.984
  350SOL    HW2 2397   0.000   1.217   2.846
  351SOL     OW 2398   0.688   1.662   3.578
  351SOL    HW1 2399   0.632   1.743   3.587
  351SOL    HW2 2400   0.740   1.666   3.492
  352SOL     OW 2401   1.726   0.135   2.385
  352SOL    HW1 2402   1.799   0.118   2.318
  352SOL    HW2 2403   1.695   0.048   2.423
  353SOL     OW 2404   1.388   1.573   2.339
  353SOL    HW1 2405   1.455   1.585   2.265
  353SOL    HW2 2406   1.348   1.662   2.362
  354SOL     OW 2407   0.130   1.794   3.713
  354SOL    HW1 2408   0.089   1.720   3.766
  354SOL    HW2 2409   0.194   1.845   3.771
  355SOL     OW 2410   1.280   0.927   2.534
  355SOL    HW1 2411   1.340   0.846   2.536
  355SOL    HW2 2412   1.320   0.996   2.474
  356SOL     OW 2413   0.672   1.616   2.016
  356SOL    HW1 2414   0.681   1.626   1.917
  356SOL    HW2 2415   0.632   1.527   2.037
  357SOL     OW 2416   1.650   1.720   3.256
  357SOL    HW1 2417   1.703   1.730   3.172
  357SOL    HW2 2418   1.623   1.810   3.290
  358SOL     OW 2419   1.841   0.175   2.825
  358SOL    HW1 2420   1.880   0.090   2.789
  358SOL    HW2 2421   1.743   0.177   2.806
  359SOL     OW 2422   0.263   0.326   2.582
  359SOL    HW1 2423   0.184   0.377   2.548
  359SOL    HW2 2424   0.254   0.311   2.680
  360SOL     OW 2425   1.194   1.612   1.893
  360SOL    HW1 2426   1.200   1.519   1.930
  360SOL    HW2 2427   1.135   1.612   1.813
  361SOL     OW 2428   0.916   0.910   2.153
  361SOL    HW1 2429   0.979   0.948   2.085
  361SOL    HW2 2430   0.956   0.827   2.192
  362SOL     OW 2431   1.504   1.607   1.906
  362SOL    HW1 2432   1.412   1.644   1.913
  362SOL    HW2 2433   1.542   1.627   1.816
  363SOL     OW 2434   0.372   1.288   3.352
  363SOL    HW1 2435   0.359   1.381   3.318
  363SOL    HW2 2436   0.288   1.236   3.339
  364SOL     OW 2437   1.614   1.292   3.151
  364SOL    HW1 2438   1.674   1.295   3.231
  364SOL    HW2 2439   1.539   1.356   3.164
  365SOL     OW 2440   1.039   1.098   2.558
  365SOL    HW1 2441   0.969   1.051   2.612
  365SOL    HW2 2442   1.098   1.030   2.515
  366SOL     OW 2443   0.590   1.487   2.353
  366SOL    HW1 2444   0.632   1.429   2.283
  366SOL    HW2 2445   0.546   1.566   2.309
  367SOL     OW 2446   0.255   1.348   2.152
  367SOL    HW1 2447   0.159   1.349   2.125
  367SOL    HW2 2448   0.267   1.401   2.236
  368SOL     OW 2449   0.105   1.013   3.588
  368SOL    HW1 2450   0.028   0.980   3.642
  368SOL    HW2 2451   0.190   0.983   3.630
  369SOL     OW 2452   0.672   0.203   3.351
  369SOL    HW1 2453   0.762   0.187   3.311
  369SOL    HW2 2454   0.680   0.208   3.450
  370SOL     OW 2455   0.075   0.345   1.895
  370SOL    HW1 2456  -0.017   0.317   1.866
  370SOL    HW2 2457   0.106   0.422   1.839
  371SOL     OW 2458   1.440   0.856   3.260
  371SOL    HW1 2459   1.383   0.908   3.197
  371SOL    HW2 2460   1.536   0.868   3.236
  372SOL     OW 2461   0.072   0.166   2.180
  372SOL    HW1 2462   0.055   0.249   2.126
  372SOL    HW2 2463   0.162   0.129   2.158
  373SOL     OW 2464   1.183   1.335   1.981
  373SOL    HW1 2465   1.084   1.324   1.983
  373SOL    HW2 2466   1.217   1.350   2.074
  374SOL     OW 2467   0.613   0.842   3.293
  374SOL    HW1 2468   0.669   0.923   3.276
  374SOL    HW2 2469   0.672   0.762   3.296
  375SOL     OW 2470   1.493   1.767   2.821
  375SOL    HW1 2471   1.526   1.831   2.752
  375SOL    HW2 2472   1.559   1.761   2.896
  376SOL     OW 2473   0.716   0.565   3.570
  376SOL    HW1 2474   0.735   0.630   3.644
  376SOL    HW2 2475   0.776   0.485   3.579
  377SOL     OW 2476   1.450   1.220   3.495
  377SOL    HW1 2477   1.441   1.210   3.594
  377SOL    HW2 2478   1.546   1.213   3.469
  378SOL     OW 2479   0.390   1.741   3.422
  378SOL    HW1 2480   0.299   1.782   3.420
  378SOL    HW2 2481   0.383   1.647   3.454
  379SOL     OW 2482   1.674   0.883   3.116
  379SOL    HW1 2483   1.647   0.794   3.079
  379SOL    HW2 2484   1.675   0.951   3.043
  380SOL     OW 2485   1.225   0.325   2.311
  380SOL    HW1 2486   1.290   0.251   2.300
  380SOL    HW2 2487   1.245   0.375   2.395
  381SOL     OW 2488   0.594   0.745   2.514
  381SOL    HW1 2489   0.644   0.830   2.495
  381SOL    HW2 2490   0.506   0.747   2.466
  382SOL     OW 2491   1.777   0.342   3.504
  382SOL    HW1 2492   1.760   0.373   3.410
  382SOL    HW2 2493   1.693   0.305   3.542
  383SOL     OW 2494   1.730   0.934   3.379
  383SOL    HW1 2495   1.768   1.025   3.394
  383SOL    HW2 2496   1.722   0.917   3.280
  384SOL     OW 2497   0.859   1.374   1.878
  384SOL    HW1 2498   0.813   1.389   1.966
  384SOL    HW2 2499   0.903   1.459   1.848
  385SOL     OW 2500   0.661   1.790   2.815
  385SOL    HW1 2501   0.615   1.878   2.802
  385SOL    HW2 2502   0.760   1.802   2.808
  386SOL     OW 2503   1.083   0.984   1.949
  386SOL    HW1 2504   1.060   1.037   1.867
  386SOL    HW2 2505   1.164   0.928   1.930
  387SOL     OW 2506   1.861   1.569   2.713
  387SOL    HW1 2507   1.790   1.557   2.643
  387SOL    HW2 2508   1.862   1.490   2.773
  388SOL     OW 2509   0.221   1.314   3.706
  388SOL    HW1 2510   0.156   1.241   3.685
  388SOL    HW2 2511   0.225   1.328   3.804
  389SOL     OW 2512   0.079   1.240   2.515
  389SOL    HW1 2513   0.078   1.193   2.603
  389SOL    HW2 2514   0.161   1.212   2.464
  390SOL     OW 2515   0.672   1.391   3.486
  390SOL    HW1 2516   0.594   1.341   3.524
  390SOL    HW2 2517   0.669   1.486   3.517
  391SOL     OW 2518   1.824   0.192   3.089
  391SOL    HW1 2519   1.820   0.102   3.133
  391SOL    HW2 2520   1.827   0.181   2.990
  392SOL     OW 2521   0.428   0.424   2.382
  392SOL    HW1 2522   0.458   0.352   2.320
  392SOL    HW2 2523   0.389   0.384   2.465
  393SOL     OW 2524   1.705   1.487   2.966
  393SOL    HW1 2525   1.612   1.462   2.939
  393SOL    HW2 2526   1.731   1.437   3.048
  394SOL     OW 2527   0.317   0.547   3.142
  394SOL    HW1 2528   0.355   0.488   3.214
  394SOL    HW2 2529   0.357   0.521   3.054
  395SOL     OW 2530   0.812   1.586   2.549
  395SOL    HW1 2531   0.844   1.596   2.455
  395SOL    HW2 2532   0.733   1.524   2.551
  396SOL     OW 2533   1.424   0.214   2.974
  396SOL    HW1 2534   1.476   0.149   3.029
  396SOL    HW2 2535   1.375   0.277   3.035
  397SOL     OW 2536   1.001   0.034   3.016
  397SOL    HW1 2537   0.938  -0.038   2.985
  397SOL    HW2 2538   1.094  -0.002   3.016
  398SOL     OW 2539   0.770   1.330   2.163
  398SOL    HW1 2540   0.724   1.243   2.180
  398SOL    HW2 2541   0.861   1.327   2.204
  399SOL     OW 2542   0.618   1.567   3.146
  399SOL    HW1 2543   0.613   1.649   3.203
  399SOL    HW2 2544   0.707   1.564   3.101
  400SOL     OW 2545   1.352   0.052   2.030
  400SOL    HW1 2546   1.387   0.011   1.946
  400SOL    HW2 2547   1.262   0.014   2.050
  401SOL     OW 2548   0.039   1.077   2.162
  401SOL    HW1 2549   0.138   1.066   2.153
  401SOL    HW2 2550  -0.001   0.991   2.194
  402SOL     OW 2551   0.875   1.646   2.199
  402SOL    HW1 2552   0.798   1.611   2.145
  402SOL    HW2 2553   0.843   1.717   2.261
  403SOL     OW 2554   0.230   0.628   3.837
  403SOL    HW1 2555   0.137   0.626   3.874
  403SOL    HW2 2556   0.231   0.589   3.745
  404SOL     OW 2557   0.225   0.275   4.720
  404SOL    HW1 2558   0.260   0.258   4.812
  404SOL    HW2 2559   0.137   0.230   4.708
  405SOL     OW 2560   0.019   0.368   4.371
  405SOL    HW1 2561  -0.063   0.411   4.410
  405SOL    HW2 2562  -0.009   0.295   4.308
  406SOL     OW 2563   0.569   1.275   4.889
  406SOL    HW1 2564   0.476   1.268   4.852
  406SOL    HW2 2565   0.580   1.364   4.933
  407SOL     OW 2566   1.555   1.511   4.427
  407SOL    HW1 2567   1.498   1.495   4.508
  407SOL    HW2 2568   1.496   1.521   4.347
  408SOL     OW 2569   1.135   0.703   4.441
  408SOL    HW1 2570   1.192   0.781   4.416
  408SOL    HW2 2571   1.075   0.729   4.517
  409SOL     OW 2572   1.755   0.607   3.955
  409SOL    HW1 2573   1.743   0.594   3.856
  409SOL    HW2 2574   1.725   0.526   4.004
  410SOL     OW 2575   0.768   1.144   4.747
  410SOL    HW1 2576   0.690   1.161   4.807
  410SOL    HW2 2577   0.802   1.231   4.711
  411SOL     OW 2578   0.685   1.012   4.389
  411SOL    HW1 2579   0.754   0.996   4.459
  411SOL    HW2 2580   0.612   1.069   4.427
  412SOL     OW 2581   0.335   1.435   4.785
  412SOL    HW1 2582   0.257   1.404   4.732
  412SOL    HW2 2583   0.393   1.493   4.728
  413SOL     OW 2584   1.603   0.447   4.461
  413SOL    HW1 2585   1.529   0.493   4.411
  413SOL    HW2 2586   1.654   0.515   4.514
  414SOL     OW 2587   0.231   1.713   4.207
  414SOL    HW1 2588   0.265   1.790   4.261
  414SOL    HW2 2589   0.275   1.713   4.117
  415SOL     OW 2590   0.230   1.434   4.262
  415SOL    HW1 2591   0.204   1.530   4.262
  415SOL    HW2 2592   0.159   1.380   4.307
  416SOL     OW 2593   0.240   1.091   4.610
  416SOL    HW1 2594   0.254   1.007   4.662
  416SOL    HW2 2595   0.185   1.155   4.665
  417SOL     OW 2596   0.620   1.786   5.163
  417SOL    HW1 2597   0.528   1.769   5.198
  417SOL    HW2 2598   0.648   1.878   5.189
  418SOL     OW 2599   0.606   0.964   3.847
  418SOL    HW1 2600   0.613   1.048   3.793
  418SOL    HW2 2601   0.652   0.977   3.935
  419SOL     OW 2602   1.842   1.767   4.083
  419SOL    HW1 2603   1.896   1.738   4.163
  419SOL    HW2 2604   1.872   1.857   4.054
  420SOL     OW 2605   0.027   1.596   3.841
  420SOL    HW1 2606   0.008   1.500   3.862
  420SOL    HW2 2607  -0.006   1.654   3.916
  421SOL     OW 2608   1.689   0.922   4.336
  421SOL    HW1 2609   1.784   0.893   4.344
  421SOL    HW2 2610   1.681   0.987   4.261
  422SOL     OW 2611   1.641   1.108   4.156
  422SOL    HW1 2612   1.727   1.110   4.104
  422SOL    HW2 2613   1.655   1.155   4.244
  423SOL     OW 2614   0.613   1.365   4.450
  423SOL    HW1 2615   0.564   1.278   4.459
  423SOL    HW2 2616   0.590   1.408   4.363
  424SOL     OW 2617   0.197   0.976   4.988
  424SOL    HW1 2618   0.286   0.931   4.974
  424SOL    HW2 2619   0.124   0.911   4.969
  425SOL     OW 2620   1.525   0.999   3.914
  425SOL    HW1 2621   1.462   0.923   3.927
  425SOL    HW2 2622   1.573   1.017   4.000
  426SOL     OW 2623   1.466   1.417   4.677
  426SOL    HW1 2624   1.407   1.423   4.757
  426SOL    HW2 2625   1.451   1.329   4.631
  427SOL     OW 2626   1.667   1.714   4.296
  427SOL    HW1 2627   1.626   1.691   4.208
  427SOL    HW2 2628   1.649   1.640   4.361
  428SOL     OW 2629   0.598   0.729   3.994
  428SOL    HW1 2630   0.622   0.798   3.926
  428SOL    HW2 2631   0.520   0.762   4.048
  429SOL     OW 2632   1.281   0.345   4.668
  429SOL    HW1 2633   1.195   0.295   4.655
  429SOL    HW2 2634   1.343   0.291   4.724
  430SOL     OW 2635   1.576   1.662   4.031
  430SOL    HW1 2636   1.665   1.708   4.034
  430SOL    HW2 2637   1.555   1.638   3.936
  431SOL     OW 2638   0.991   0.410   4.966
  431SOL    HW1 2639   0.914   0.444   5.020
  431SOL    HW2 2640   0.957   0.359   4.887
  432SOL     OW 2641   1.041   0.701   4.153
  432SOL    HW1 2642   1.067   0.697   4.249
  432SOL    HW2 2643   0.956   0.650   4.139
  433SOL     OW 2644   1.362   1.144   4.269
  433SOL    HW1 2645   1.445   1.115   4.221
  433SOL    HW2 2646   1.313   1.211   4.213
  434SOL     OW 2647   1.008   1.456   4.201
  434SOL    HW1 2648   0.962   1.528   4.149
  434SOL    HW2 2649   1.004   1.476   4.299
  435SOL     OW 2650   0.351   1.801   4.577
  435SOL    HW1 2651   0.401   1.715   4.583
  435SOL    HW2 2652   0.416   1.878   4.574
  436SOL     OW 2653   1.795   1.066   4.597
  436SOL    HW1 2654   1.733   1.051   4.521
  436SOL    HW2 2655   1.743   1.077   4.682
  437SOL     OW 2656   0.321   0.943   3.966
  437SOL    HW1 2657   0.403   0.982   3.924
  437SOL    HW2 2658   0.294   0.861   3.917
  438SOL     OW 2659   1.458   0.735   4.452
  438SOL    HW1 2660   1.453   0.670   4.527
  438SOL    HW2 2661   1.538   0.794   4.465
  439SOL     OW 2662   1.111   1.776   3.961
  439SOL    HW1 2663   1.051   1.714   4.011
  439SOL    HW2 2664   1.142   1.732   3.876
  440SOL     OW 2665   1.632   1.377   3.805
  440SOL    HW1 2666   1.600   1.471   3.795
  440SOL    HW2 2667   1.556   1.314   3.793
  441SOL     OW 2668   0.464   1.743   4.047
  441SOL    HW1 2669   0.497   1.782   4.133
  441SOL    HW2 2670   0.540   1.736   3.982
  442SOL     OW 2671   1.400   0.107   4.150
  442SOL    HW1 2672   1.376   0.070   4.060
  442SOL    HW2 2673   1.499   0.123   4.154
  443SOL     OW 2674   0.249   1.785   4.965
  443SOL    HW1 2675   0.306   1.720   5.015
  443SOL    HW2 2676   0.233   1.752   4.872
  444SOL     OW 2677   0.940   1.698   4.628
  444SOL    HW1 2678   1.020   1.641   4.649
  444SOL    HW2 2679   0.891   1.658   4.551
  445SOL     OW 2680   0.382   0.700   4.204
  445SOL    HW1 2681   0.427   0.610   4.201
  445SOL    HW2 2682   0.288   0.689   4.237
  446SOL     OW 2683   0.803   1.402   4.648
  446SOL    HW1 2684   0.893   1.416   4.606
  446SOL    HW2 2685   0.732   1.404   4.577
  447SOL     OW 2686   0.539   0.064   4.236
  447SOL    HW1 2687   0.458   0.065   4.294
  447SOL    HW2 2688   0.542   0.147   4.181
  448SOL     OW 2689   1.434   1.188   3.765
  448SOL    HW1 2690   1.466   1.112   3.822
  448SOL    HW2 2691   1.342   1.215   3.795
  449SOL     OW 2692   0.297   0.035   3.895
  449SOL    HW1 2693   0.346   0.119   3.874
  449SOL    HW2 2694   0.359  -0.030   3.940
  450SOL     OW 2695   1.227   1.570   4.517
  450SOL    HW1 2696   1.248   1.644   4.452
  450SOL    HW2 2697   1.295   1.570   4.590
  451SOL     OW 2698   0.459   1.152   4.465
  451SOL    HW1 2699   0.388   1.125   4.530
  451SOL    HW2 2700   0.433   1.124   4.372
  452SOL     OW 2701   1.271   1.797   4.315
  452SOL    HW1 2702   1.315   1.861   4.251
  452SOL    HW2 2703   1.221   1.849   4.385
  453SOL     OW 2704   1.032   0.549   3.740
  453SOL    HW1 2705   0.991   0.631   3.701
  453SOL    HW2 2706   1.096   0.575   3.813
  454SOL     OW 2707   0.561   0.222   4.871
  454SOL    HW1 2708   0.599   0.138   4.908
  454SOL    HW2 2709   0.473   0.241   4.915
  455SOL     OW 2710   1.429   1.173   4.591
  455SOL    HW1 2711   1.374   1.089   4.584
  455SOL    HW2 2712   1.455   1.202   4.499
  456SOL     OW 2713   1.466   0.590   4.716
  456SOL    HW1 2714   1.436   0.495   4.723
  456SOL    HW2 2715   1.539   0.606   4.782
  457SOL     OW 2716   1.857   0.833   4.101
  457SOL    HW1 2717   1.899   0.769   4.165
  457SOL    HW2 2718   1.819   0.782   4.023
  458SOL     OW 2719   0.488   1.385   3.898
  458SOL    HW1 2720   0.401   1.370   3.945
  458SOL    HW2 2721   0.471   1.411   3.803
  459SOL     OW 2722   1.664   1.280   4.381
  459SOL    HW1 2723   1.763   1.288   4.395
  459SOL    HW2 2724   1.619   1.364   4.412
  460SOL     OW 2725   1.390   0.575   3.802
  460SOL    HW1 2726   1.336   0.554   3.883
  460SOL    HW2 2727   1.481   0.534   3.811
  461SOL     OW 2728   0.527   0.256   4.052
  461SOL    HW1 2729   0.554   0.197   3.977
  461SOL    HW2 2730   0.527   0.351   4.021
  462SOL     OW 2731   1.111   1.195   4.824
  462SOL    HW1 2732   1.071   1.239   4.905
  462SOL    HW2 2733   1.070   1.232   4.741
  463SOL     OW 2734   1.638   1.099   4.803
  463SOL    HW1 2735   1.643   1.180   4.862
  463SOL    HW2 2736   1.552   1.101   4.752
  464SOL     OW 2737   0.705   1.050   4.092
  464SOL    HW1 2738   0.691   1.057   4.191
  464SOL    HW2 2739   0.789   0.999   4.074
  465SOL     OW 2740   0.410   0.813   4.975
  465SOL    HW1 2741   0.496   0.825   5.025
  465SOL    HW2 2742   0.368   0.726   5.002
  466SOL     OW 2743   1.274   0.386   4.986
  466SOL    HW1 2744   1.295   0.460   5.050
  466SOL    HW2 2745   1.185   0.403   4.943
  467SOL     OW 2746   0.367   1.100   4.225
  467SOL    HW1 2747   0.360   1.183   4.169
  467SOL    HW2 2748   0.371   1.020   4.165
  468SOL     OW 2749   0.566   0.537   4.589
  468SOL    HW1 2750   0.578   0.603   4.515
  468SOL    HW2 2751   0.612   0.571   4.672
  469SOL     OW 2752   1.252   1.348   4.112
  469SOL    HW1 2753   1.302   1.425   4.152
  469SOL    HW2 2754   1.157   1.350   4.144
  470SOL     OW 2755   1.272   1.445   4.866
  470SOL    HW1 2756   1.319   1.458   4.953
  470SOL    HW2 2757   1.206   1.371   4.875
  471SOL     OW 2758   1.582   0.639   4.196
  471SOL    HW1 2759   1.551   0.700   4.269
  471SOL    HW2 2760   1.632   0.691   4.127
  472SOL     OW 2761   0.354   1.510   5.053
  472SOL    HW1 2762   0.333   1.466   4.966
  472SOL    HW2 2763   0.451   1.536   5.056
  473SOL     OW 2764   0.573   0.870   4.753
  473SOL    HW1 2765   0.617   0.959   4.744
  473SOL    HW2 2766   0.510   0.870   4.830
  474SOL     OW 2767   1.360   0.862   4.769
  474SOL    HW1 2768   1.285   0.862   4.703
  474SOL    HW2 2769   1.397   0.770   4.778
  475SOL     OW 2770   1.209   0.525   3.999
  475SOL    HW1 2771   1.222   0.441   4.053
  475SOL    HW2 2772   1.180   0.599   4.059
  476SOL     OW 2773   0.307   0.213   4.955
  476SOL    HW1 2774   0.284   0.250   5.045
  476SOL    HW2 2775   0.277   0.118   4.949
  477SOL     OW 2776   0.732   0.634   4.788
  477SOL    HW1 2777   0.791   0.608   4.712
  477SOL    HW2 2778   0.704   0.730   4.777
  478SOL     OW 2779   0.307   0.063   4.342
  478SOL    HW1 2780   0.296   0.157   4.375
  478SOL    HW2 2781   0.302   0.000   4.419
  479SOL     OW 2782   1.622   0.367   4.098
  479SOL    HW1 2783   1.624   0.291   4.162
  479SOL    HW2 2784   1.574   0.444   4.138
  480SOL     OW 2785   1.023   0.766   4.690
  480SOL    HW1 2786   1.038   0.787   4.786
  480SOL    HW2 2787   0.993   0.671   4.681
  481SOL     OW 2788   1.540   0.274   3.849
  481SOL    HW1 2789   1.479   0.199   3.872
  481SOL    HW2 2790   1.562   0.326   3.932
  482SOL     OW 2791   1.303   0.838   3.766
  482SOL    HW1 2792   1.337   0.745   3.781
  482SOL    HW2 2793   1.321   0.865   3.671
  483SOL     OW 2794   1.068   1.333   4.573
  483SOL    HW1 2795   1.075   1.249   4.518
  483SOL    HW2 2796   1.130   1.402   4.537
  484SOL     OW 2797   0.319   0.810   4.673
  484SOL    HW1 2798   0.412   0.846   4.678
  484SOL    HW2 2799   0.313   0.725   4.725
  485SOL     OW 2800   0.339   0.509   4.730
  485SOL    HW1 2801   0.287   0.426   4.713
  485SOL    HW2 2802   0.416   0.514   4.666
  486SOL     OW 2803   0.008   1.326   3.924
  486SOL    HW1 2804  -0.085   1.347   3.893
  486SOL    HW2 2805   0.018   1.227   3.937
  487SOL     OW 2806   0.088   1.801   4.651
  487SOL    HW1 2807   0.046   1.715   4.624
  487SOL    HW2 2808   0.182   1.804   4.617
  488SOL     OW 2809   0.504   1.568   4.634
  488SOL    HW1 2810   0.570   1.642   4.643
  488SOL    HW2 2811   0.548   1.489   4.592
  489SOL     OW 2812   1.002   0.796   4.962
  489SOL    HW1 2813   1.043   0.764   5.048
  489SOL    HW2 2814   0.906   0.769   4.959
  490SOL     OW 2815   0.040   0.544   4.838
  490SOL    HW1 2816   0.125   0.511   4.797
  490SOL    HW2 2817   0.053   0.559   4.936
  491SOL     OW 2818   0.815   0.572   4.049
  491SOL    HW1 2819   0.822   0.483   4.003
  491SOL    HW2 2820   0.721   0.606   4.041
  492SOL     OW 2821   1.657   0.604   4.930
  492SOL    HW1 2822   1.619   0.535   4.992
  492SOL    HW2 2823   1.739   0.568   4.886
  493SOL     OW 2824   0.671   0.464   4.993
  493SOL    HW1 2825   0.637   0.375   4.963
  493SOL    HW2 2826   0.697   0.518   4.913
  494SOL     OW 2827   0.473   0.500   3.915
  494SOL    HW1 2828   0.534   0.580   3.919
  494SOL    HW2 2829   0.378   0.531   3.922
  495SOL     OW 2830   1.347   1.059   4.958
  495SOL    HW1 2831   1.371   0.996   4.884
  495SOL    HW2 2832   1.257   1.099   4.940
  496SOL     OW 2833   1.302   0.855   4.033
  496SOL    HW1 2834   1.216   0.824   4.075
  496SOL    HW2 2835   1.298   0.841   3.934
  497SOL     OW 2836   1.759   1.747   4.878
  497SOL    HW1 2837   1.820   1.777   4.805
  497SOL    HW2 2838   1.721   1.658   4.856
  498SOL     OW 2839   1.726   0.135   4.247
  498SOL    HW1 2840   1.799   0.118   4.180
  498SOL    HW2 2841   1.695   0.048   4.285
  499SOL     OW 2842   1.388   1.573   4.201
  499SOL    HW1 2843   1.455   1.585   4.127
  499SOL    HW2 2844   1.348   1.662   4.224
  500SOL     OW 2845   1.280   0.927   4.396
  500SOL    HW1 2846   1.340   0.846   4.398
  500SOL    HW2 2847   1.320   0.996   4.336
  501SOL     OW 2848   0.672   1.616   3.878
  501SOL    HW1 2849   0.681   1.626   3.779
  501SOL    HW2 2850   0.632   1.527   3.899
  502SOL     OW 2851   1.650   1.720   5.118
  502SOL    HW1 2852   1.703   1.730   5.034
  502SOL    HW2 2853   1.623   1.810   5.152
  503SOL     OW 2854   1.841   0.175   4.687
  503SOL    HW1 2855   1.880   0.090   4.651
  503SOL    HW2 2856   1.743   0.177   4.668
  504SOL     OW 2857   0.263   0.326   4.444
  504SOL    HW1 2858   0.184   0.377   4.410
  504SOL    HW2 2859   0.254   0.311   4.542
  505SOL     OW 2860   1.194   1.612   3.755
  505SOL    HW1 2861   1.200   1.519   3.792
  505SOL    HW2 2862   1.135   1.612   3.675
  506SOL     OW 2863   0.822   1.002   5.096
  506SOL    HW1 2864   0.862   1.001   5.004
  506SOL    HW2 2865   0.832   1.094   5.136
  507SOL     OW 2866   0.916   0.910   4.015
  507SOL    HW1 2867   0.979   0.948   3.947
  507SOL    HW2 2868   0.956   0.827   4.054
  508SOL     OW 2869   1.504   1.607   3.768
  508SOL    HW1 2870   1.412   1.644   3.775
  508SOL    HW2 2871   1.542   1.627   3.678
  509SOL     OW 2872   1.039   1.098   4.420
  509SOL    HW1 2873   0.969   1.051   4.474
  509SOL    HW2 2874   1.098   1.030   4.377
  510SOL     OW 2875   0.590   1.487   4.215
  510SOL    HW1 2876   0.632   1.429   4.145
  510SOL    HW2 2877   0.546   1.566   4.171
  511SOL     OW 2878   1.709   0.385   5.105
  511SOL    HW1 2879   1.782   0.454   5.109
  511SOL    HW2 2880   1.737   0.310   5.046
  512SOL     OW 2881   0.255   1.348   4.014
  512SOL    HW1 2882   0.159   1.349   3.987
  512SOL    HW2 2883   0.267   1.401   4.098
  513SOL     OW 2884   0.075   0.345   3.757
  513SOL    HW1 2885  -0.017   0.317   3.728
  513SOL    HW2 2886   0.106   0.422   3.701
  514SOL     OW 2887   0.072   0.166   4.042
  514SOL    HW1 2888   0.055   0.249   3.988
  514SOL    HW2 2889   0.162   0.129   4.020
  515SOL     OW 2890   1.183   1.335   3.843
  515SOL    HW1 2891   1.084   1.324   3.845
  515SOL    HW2 2892   1.217   1.350   3.936
  516SOL     OW 2893   1.450   1.220   5.357
  516SOL    HW1 2894   1.441   1.210   5.456
  516SOL    HW2 2895   1.546   1.213   5.331
  517SOL     OW 2896   1.674   0.883   4.978
  517SOL    HW1 2897   1.647   0.794   4.941
  517SOL    HW2 2898   1.675   0.951   4.905
  518SOL     OW 2899   1.225   0.325   4.173
  518SOL    HW1 2900   1.290   0.251   4.162
  518SOL    HW2 2901   1.245   0.375   4.257
  519SOL     OW 2902   0.594   0.745   4.376
  519SOL    HW1 2903   0.644   0.830   4.357
  519SOL    HW2 2904   0.506   0.747   4.328
  520SOL     OW 2905   1.730   0.934   5.241
  520SOL    HW1 2906   1.768   1.025   5.256
  520SOL    HW2 2907   1.722   0.917   5.142
  521SOL     OW 2908   0.661   1.790   4.677
  521SOL    HW1 2909   0.615   1.878   4.664
  521SOL    HW2 2910   0.760   1.802   4.670
  522SOL     OW 2911   0.859   0.956   4.585
  522SOL    HW1 2912   0.913   0.887   4.633
  522SOL    HW2 2913   0.827   1.025   4.651
  523SOL     OW 2914   1.083   0.984   3.811
  523SOL    HW1 2915   1.060   1.037   3.729
  523SOL    HW2 2916   1.164   0.928   3.792
  524SOL     OW 2917   1.861   1.569   4.575
  524SOL    HW1 2918   1.790   1.557   4.505
  524SOL    HW2 2919   1.862   1.490   4.635
  525SOL     OW 2920   1.824   0.192   4.951
  525SOL    HW1 2921   1.820   0.102   4.995
  525SOL    HW2 2922   1.827   0.181   4.852
  526SOL     OW 2923   0.428   0.424   4.244
  526SOL    HW1 2924   0.458   0.352   4.182
  526SOL    HW2 2925   0.389   0.384   4.327
  527SOL     OW 2926   1.705   1.487   4.828
  527SOL    HW1 2927   1.612   1.462   4.801
  527SOL    HW2 2928   1.731   1.437   4.910
  528SOL     OW 2929   0.812   1.586   4.411
  528SOL    HW1 2930   0.844   1.596   4.317
  528SOL    HW2 2931   0.733   1.524   4.413
  529SOL     OW 2932   1.424   0.214   4.836
  529SOL    HW1 2933   1.476   0.149   4.891
  529SOL    HW2 2934   1.375   0.277   4.897
  530SOL     OW 2935   0.770   1.330   4.025
  530SOL    HW1 2936   0.724   1.243   4.042
  530SOL    HW2 2937   0.861   1.327   4.066
  531SOL     OW 2938   1.352   0.052   3.892
  531SOL    HW1 2939   1.387   0.011   3.808
  531SOL    HW2 2940   1.262   0.014   3.912
  532SOL     OW 2941   1.300   0.453   4.415
  532SOL    HW1 2942   1.241   0.533   4.419
  532SOL    HW2 2943   1.315   0.418   4.508
  533SOL     OW 2944   1.593   0.221   4.606
  533SOL    HW1 2945   1.509   0.220   4.660
  533SOL    HW2 2946   1.595   0.304   4.550
  534SOL     OW 2947   0.875   1.646   4.061
  534SOL    HW1 2948   0.798   1.611   4.007
  534SOL    HW2 2949   0.843   1.717   4.123
  535SOL     OW 2950   0.230   2.490   0.113
  535SOL    HW1 2951   0.137   2.488   0.150
  535SOL    HW2 2952   0.231   2.451   0.021
  536SOL     OW 2953   0.019   2.230   0.647
  536SOL    HW1 2954  -0.063   2.273   0.686
  536SOL    HW2 2955  -0.009   2.157   0.584
  537SOL     OW 2956   0.569   3.137   1.165
  537SOL    HW1 2957   0.476   3.130   1.128
  537SOL    HW2 2958   0.580   3.226   1.209
  538SOL     OW 2959   1.555   3.373   0.703
  538SOL    HW1 2960   1.498   3.357   0.784
  538SOL    HW2 2961   1.496   3.383   0.623
  539SOL     OW 2962   1.135   2.565   0.717
  539SOL    HW1 2963   1.192   2.643   0.692
  539SOL    HW2 2964   1.075   2.591   0.793
  540SOL     OW 2965   0.768   3.006   1.023
  540SOL    HW1 2966   0.690   3.023   1.083
  540SOL    HW2 2967   0.802   3.093   0.987
  541SOL     OW 2968   0.850   2.660   1.823
  541SOL    HW1 2969   0.846   2.736   1.888
  541SOL    HW2 2970   0.872   2.696   1.732
  542SOL     OW 2971   0.685   2.874   0.665
  542SOL    HW1 2972   0.754   2.858   0.735
  542SOL    HW2 2973   0.612   2.931   0.703
  543SOL     OW 2974   0.686   3.023   1.803
  543SOL    HW1 2975   0.746   3.102   1.817
  543SOL    HW2 2976   0.600   3.054   1.762
  544SOL     OW 2977   0.335   3.297   1.061
  544SOL    HW1 2978   0.257   3.266   1.008
  544SOL    HW2 2979   0.393   3.355   1.004
  545SOL     OW 2980   1.460   3.367   1.339
  545SOL    HW1 2981   1.484   3.461   1.365
  545SOL    HW2 2982   1.444   3.313   1.421
  546SOL     OW 2983   1.603   2.309   0.737
  546SOL    HW1 2984   1.529   2.355   0.687
  546SOL    HW2 2985   1.654   2.377   0.790
  547SOL     OW 2986   0.231   3.575   0.483
  547SOL    HW1 2987   0.265   3.652   0.537
  547SOL    HW2 2988   0.275   3.575   0.393
  548SOL     OW 2989   1.127   3.203   1.690
  548SOL    HW1 2990   1.174   3.203   1.778
  548SOL    HW2 2991   1.079   3.116   1.679
  549SOL     OW 2992   0.230   3.296   0.538
  549SOL    HW1 2993   0.204   3.392   0.538
  549SOL    HW2 2994   0.159   3.242   0.583
  550SOL     OW 2995   0.240   2.953   0.886
  550SOL    HW1 2996   0.254   2.869   0.938
  550SOL    HW2 2997   0.185   3.017   0.941
  551SOL     OW 2998   0.620   3.648   1.439
  551SOL    HW1 2999   0.528   3.631   1.474
  551SOL    HW2 3000   0.648   3.740   1.465
  552SOL     OW 3001   0.606   2.826   0.123
  552SOL    HW1 3002   0.613   2.910   0.069
  552SOL    HW2 3003   0.652   2.839   0.211
  553SOL     OW 3004   1.594   1.976   1.480
  553SOL    HW1 3005   1.576   2.043   1.408
  553SOL    HW2 3006   1.591   2.022   1.569
  554SOL     OW 3007   0.122   2.505   0.563
  554SOL    HW1 3008   0.077   2.417   0.580
  554SOL    HW2 3009   0.121   2.559   0.647
  555SOL     OW 3010   1.842   3.629   0.359
  555SOL    HW1 3011   1.896   3.600   0.439
  555SOL    HW2 3012   1.872   3.719   0.330
  556SOL     OW 3013   0.027   3.458   0.117
  556SOL    HW1 3014   0.008   3.362   0.138
  556SOL    HW2 3015  -0.006   3.516   0.192
  557SOL     OW 3016   0.113   2.599   1.597
  557SOL    HW1 3017   0.201   2.586   1.642
  557SOL    HW2 3018   0.100   2.696   1.575
  558SOL     OW 3019   0.613   3.227   0.726
  558SOL    HW1 3020   0.564   3.140   0.735
  558SOL    HW2 3021   0.590   3.270   0.639
  559SOL     OW 3022   1.293   3.090   1.423
  559SOL    HW1 3023   1.330   3.017   1.365
  559SOL    HW2 3024   1.345   3.095   1.508
  560SOL     OW 3025   0.809   1.866   0.502
  560SOL    HW1 3026   0.849   1.957   0.493
  560SOL    HW2 3027   0.709   1.874   0.508
  561SOL     OW 3028   1.187   3.654   1.616
  561SOL    HW1 3029   1.211   3.714   1.540
  561SOL    HW2 3030   1.194   3.559   1.586
  562SOL     OW 3031   0.317   2.113   1.801
  562SOL    HW1 3032   0.388   2.184   1.807
  562SOL    HW2 3033   0.229   2.152   1.829
  563SOL     OW 3034   1.466   3.279   0.953
  563SOL    HW1 3035   1.407   3.285   1.033
  563SOL    HW2 3036   1.451   3.191   0.907
  564SOL     OW 3037   1.667   3.576   0.572
  564SOL    HW1 3038   1.626   3.553   0.484
  564SOL    HW2 3039   1.649   3.502   0.637
  565SOL     OW 3040   0.598   2.591   0.270
  565SOL    HW1 3041   0.622   2.660   0.202
  565SOL    HW2 3042   0.520   2.624   0.324
  566SOL     OW 3043   1.281   2.207   0.944
  566SOL    HW1 3044   1.195   2.157   0.931
  566SOL    HW2 3045   1.343   2.153   1.000
  567SOL     OW 3046   1.576   3.524   0.307
  567SOL    HW1 3047   1.665   3.570   0.310
  567SOL    HW2 3048   1.555   3.500   0.212
  568SOL     OW 3049   0.807   2.467   1.465
  568SOL    HW1 3050   0.760   2.464   1.554
  568SOL    HW2 3051   0.756   2.412   1.399
  569SOL     OW 3052   1.394   2.331   1.674
  569SOL    HW1 3053   1.374   2.374   1.762
  569SOL    HW2 3054   1.472   2.269   1.683
  570SOL     OW 3055   0.973   2.752   1.572
  570SOL    HW1 3056   1.019   2.668   1.543
  570SOL    HW2 3057   0.917   2.786   1.497
  571SOL     OW 3058   0.991   2.272   1.242
  571SOL    HW1 3059   0.914   2.306   1.296
  571SOL    HW2 3060   0.957   2.221   1.163
  572SOL     OW 3061   1.041   2.563   0.429
  572SOL    HW1 3062   1.067   2.559   0.525
  572SOL    HW2 3063   0.956   2.512   0.415
  573SOL     OW 3064   0.076   2.673   0.789
  573SOL    HW1 3065   0.175   2.661   0.798
  573SOL    HW2 3066   0.052   2.768   0.810
  574SOL     OW 3067   0.130   3.683   1.571
  574SOL    HW1 3068   0.120   3.668   1.670
  574SOL    HW2 3069   0.044   3.719   1.535
  575SOL     OW 3070   1.719   2.447   1.831
  575SOL    HW1 3071   1.693   2.536   1.795
  575SOL    HW2 3072   1.717   2.379   1.758
  576SOL     OW 3073   1.008   3.318   0.477
  576SOL    HW1 3074   0.962   3.390   0.425
  576SOL    HW2 3075   1.004   3.338   0.575
  577SOL     OW 3076   0.351   3.663   0.853
  577SOL    HW1 3077   0.401   3.577   0.859
  577SOL    HW2 3078   0.416   3.740   0.850
  578SOL     OW 3079   1.227   3.412   1.506
  578SOL    HW1 3080   1.233   3.335   1.570
  578SOL    HW2 3081   1.175   3.386   1.426
  579SOL     OW 3082   0.321   2.805   0.242
  579SOL    HW1 3083   0.403   2.844   0.200
  579SOL    HW2 3084   0.294   2.723   0.193
  580SOL     OW 3085   1.458   2.597   0.728
  580SOL    HW1 3086   1.453   2.532   0.803
  580SOL    HW2 3087   1.538   2.656   0.741
  581SOL     OW 3088   0.461   3.128   1.727
  581SOL    HW1 3089   0.411   3.129   1.641
  581SOL    HW2 3090   0.398   3.110   1.803
  582SOL     OW 3091   1.111   3.638   0.237
  582SOL    HW1 3092   1.051   3.576   0.287
  582SOL    HW2 3093   1.142   3.594   0.152
  583SOL     OW 3094   1.632   3.239   0.081
  583SOL    HW1 3095   1.600   3.333   0.071
  583SOL    HW2 3096   1.556   3.176   0.069
  584SOL     OW 3097   0.464   3.605   0.323
  584SOL    HW1 3098   0.497   3.644   0.409
  584SOL    HW2 3099   0.540   3.598   0.258
  585SOL     OW 3100   1.400   1.969   0.426
  585SOL    HW1 3101   1.376   1.932   0.336
  585SOL    HW2 3102   1.499   1.985   0.430
  586SOL     OW 3103   0.249   3.647   1.241
  586SOL    HW1 3104   0.306   3.582   1.291
  586SOL    HW2 3105   0.233   3.614   1.148
  587SOL     OW 3106   0.382   2.562   0.480
  587SOL    HW1 3107   0.427   2.472   0.477
  587SOL    HW2 3108   0.288   2.551   0.513
  588SOL     OW 3109   1.547   2.084   1.729
  588SOL    HW1 3110   1.542   2.121   1.821
  588SOL    HW2 3111   1.475   2.015   1.717
  589SOL     OW 3112   0.781   2.126   1.749
  589SOL    HW1 3113   0.848   2.065   1.792
  589SOL    HW2 3114   0.708   2.145   1.814
  590SOL     OW 3115   1.351   2.452   1.433
  590SOL    HW1 3116   1.379   2.409   1.518
  590SOL    HW2 3117   1.376   2.548   1.434
  591SOL     OW 3118   0.803   3.264   0.924
  591SOL    HW1 3119   0.893   3.278   0.882
  591SOL    HW2 3120   0.732   3.266   0.853
  592SOL     OW 3121   0.539   1.926   0.512
  592SOL    HW1 3122   0.458   1.927   0.570
  592SOL    HW2 3123   0.542   2.009   0.457
  593SOL     OW 3124   1.434   3.050   0.041
  593SOL    HW1 3125   1.466   2.974   0.098
  593SOL    HW2 3126   1.342   3.077   0.071
  594SOL     OW 3127   0.297   1.897   0.171
  594SOL    HW1 3128   0.346   1.981   0.150
  594SOL    HW2 3129   0.359   1.832   0.216
  595SOL     OW 3130   1.076   2.545   1.464
  595SOL    HW1 3131   0.996   2.484   1.467
  595SOL    HW2 3132   1.157   2.492   1.440
  596SOL     OW 3133   0.459   3.014   0.741
  596SOL    HW1 3134   0.388   2.987   0.806
  596SOL    HW2 3135   0.433   2.986   0.648
  597SOL     OW 3136   1.032   2.411   0.016
  597SOL    HW1 3137   0.991   2.493  -0.023
  597SOL    HW2 3138   1.096   2.437   0.089
  598SOL     OW 3139   1.429   3.035   0.867
  598SOL    HW1 3140   1.374   2.951   0.860
  598SOL    HW2 3141   1.455   3.064   0.775
  599SOL     OW 3142   1.466   2.452   0.992
  599SOL    HW1 3143   1.436   2.357   0.999
  599SOL    HW2 3144   1.539   2.468   1.058
  600SOL     OW 3145   0.488   3.247   0.174
  600SOL    HW1 3146   0.401   3.232   0.221
  600SOL    HW2 3147   0.471   3.273   0.079
  601SOL     OW 3148   1.754   3.085   1.588
  601SOL    HW1 3149   1.845   3.046   1.575
  601SOL    HW2 3150   1.762   3.181   1.612
  602SOL     OW 3151   1.064   3.209   1.340
  602SOL    HW1 3152   0.984   3.186   1.395
  602SOL    HW2 3153   1.147   3.183   1.389
  603SOL     OW 3154   1.592   3.491   1.625
  603SOL    HW1 3155   1.619   3.525   1.535
  603SOL    HW2 3156   1.671   3.453   1.671
  604SOL     OW 3157   1.111   3.057   1.100
  604SOL    HW1 3158   1.071   3.101   1.181
  604SOL    HW2 3159   1.070   3.094   1.017
  605SOL     OW 3160   1.638   2.961   1.079
  605SOL    HW1 3161   1.643   3.042   1.138
  605SOL    HW2 3162   1.552   2.963   1.028
  606SOL     OW 3163   0.915   1.951   1.402
  606SOL    HW1 3164   0.940   1.931   1.307
  606SOL    HW2 3165   0.987   2.007   1.444
  607SOL     OW 3166   0.980   2.978   1.719
  607SOL    HW1 3167   0.881   2.984   1.729
  607SOL    HW2 3168   1.003   2.898   1.663
  608SOL     OW 3169   0.705   2.912   0.368
  608SOL    HW1 3170   0.691   2.919   0.467
  608SOL    HW2 3171   0.789   2.861   0.350
  609SOL     OW 3172   0.410   2.675   1.251
  609SOL    HW1 3173   0.496   2.687   1.301
  609SOL    HW2 3174   0.368   2.588   1.278
  610SOL     OW 3175   1.274   2.248   1.262
  610SOL    HW1 3176   1.295   2.322   1.326
  610SOL    HW2 3177   1.185   2.265   1.219
  611SOL     OW 3178   0.064   3.426   1.331
  611SOL    HW1 3179   0.018   3.508   1.297
  611SOL    HW2 3180   0.162   3.445   1.340
  612SOL     OW 3181   0.367   2.962   0.501
  612SOL    HW1 3182   0.360   3.045   0.445
  612SOL    HW2 3183   0.371   2.882   0.441
  613SOL     OW 3184   0.566   2.399   0.865
  613SOL    HW1 3185   0.578   2.465   0.791
  613SOL    HW2 3186   0.612   2.433   0.948
  614SOL     OW 3187   1.252   3.210   0.388
  614SOL    HW1 3188   1.302   3.287   0.428
  614SOL    HW2 3189   1.157   3.212   0.420
  615SOL     OW 3190   1.272   3.307   1.142
  615SOL    HW1 3191   1.319   3.320   1.229
  615SOL    HW2 3192   1.206   3.233   1.151
  616SOL     OW 3193   1.582   2.501   0.472
  616SOL    HW1 3194   1.551   2.562   0.545
  616SOL    HW2 3195   1.632   2.553   0.403
  617SOL     OW 3196   0.354   3.372   1.329
  617SOL    HW1 3197   0.333   3.328   1.242
  617SOL    HW2 3198   0.451   3.398   1.332
  618SOL     OW 3199   0.402   2.613   1.598
  618SOL    HW1 3200   0.470   2.668   1.551
  618SOL    HW2 3201   0.442   2.525   1.625
  619SOL     OW 3202   1.587   2.641   1.670
  619SOL    HW1 3203   1.495   2.679   1.665
  619SOL    HW2 3204   1.647   2.688   1.605
  620SOL     OW 3205   1.013   1.967   1.770
  620SOL    HW1 3206   1.019   2.052   1.718
  620SOL    HW2 3207   1.045   1.891   1.713
  621SOL     OW 3208   0.504   1.912   1.740
  621SOL    HW1 3209   0.462   1.855   1.670
  621SOL    HW2 3210   0.438   1.981   1.772
  622SOL     OW 3211   0.573   2.732   1.029
  622SOL    HW1 3212   0.617   2.821   1.020
  622SOL    HW2 3213   0.510   2.732   1.106
  623SOL     OW 3214   1.360   2.724   1.045
  623SOL    HW1 3215   1.285   2.724   0.979
  623SOL    HW2 3216   1.397   2.632   1.054
  624SOL     OW 3217   1.209   2.387   0.275
  624SOL    HW1 3218   1.222   2.303   0.329
  624SOL    HW2 3219   1.180   2.461   0.335
  625SOL     OW 3220   0.307   2.075   1.231
  625SOL    HW1 3221   0.284   2.112   1.321
  625SOL    HW2 3222   0.277   1.980   1.225
  626SOL     OW 3223   0.037   3.172   1.282
  626SOL    HW1 3224   0.090   3.123   1.350
  626SOL    HW2 3225   0.059   3.270   1.287
  627SOL     OW 3226   0.732   2.496   1.064
  627SOL    HW1 3227   0.791   2.470   0.988
  627SOL    HW2 3228   0.704   2.592   1.053
  628SOL     OW 3229   1.728   2.797   1.854
  628SOL    HW1 3230   1.682   2.790   1.765
  628SOL    HW2 3231   1.666   2.841   1.920
  629SOL     OW 3232   0.307   1.925   0.618
  629SOL    HW1 3233   0.296   2.019   0.651
  629SOL    HW2 3234   0.302   1.862   0.695
  630SOL     OW 3235   1.622   2.229   0.374
  630SOL    HW1 3236   1.624   2.153   0.438
  630SOL    HW2 3237   1.574   2.306   0.414
  631SOL     OW 3238   1.023   2.628   0.966
  631SOL    HW1 3239   1.038   2.649   1.062
  631SOL    HW2 3240   0.993   2.533   0.957
  632SOL     OW 3241   0.980   3.435   1.700
  632SOL    HW1 3242   0.960   3.479   1.612
  632SOL    HW2 3243   1.019   3.344   1.684
  633SOL     OW 3244   0.350   2.760   1.804
  633SOL    HW1 3245   0.426   2.804   1.852
  633SOL    HW2 3246   0.385   2.713   1.722
  634SOL     OW 3247   1.068   3.195   0.849
  634SOL    HW1 3248   1.075   3.111   0.794
  634SOL    HW2 3249   1.130   3.264   0.813
  635SOL     OW 3250   0.319   2.672   0.949
  635SOL    HW1 3251   0.412   2.708   0.954
  635SOL    HW2 3252   0.313   2.587   1.001
  636SOL     OW 3253   1.138   2.242   1.678
  636SOL    HW1 3254   1.093   2.305   1.742
  636SOL    HW2 3255   1.231   2.273   1.661
  637SOL     OW 3256   1.160   2.069   1.477
  637SOL    HW1 3257   1.160   2.133   1.554
  637SOL    HW2 3258   1.188   2.117   1.394
  638SOL     OW 3259   0.008   3.188   0.200
  638SOL    HW1 3260  -0.085   3.209   0.169
  638SOL    HW2 3261   0.018   3.089   0.213
  639SOL     OW 3262   0.088   3.663   0.927
  639SOL    HW1 3263   0.046   3.577   0.900
  639SOL    HW2 3264   0.182   3.666   0.893
  640SOL     OW 3265   0.504   3.430   0.910
  640SOL    HW1 3266   0.570   3.504   0.919
  640SOL    HW2 3267   0.548   3.351   0.868
  641SOL     OW 3268   1.002   2.658   1.238
  641SOL    HW1 3269   1.043   2.626   1.324
  641SOL    HW2 3270   0.906   2.631   1.235
  642SOL     OW 3271   0.189   2.382   1.722
  642SOL    HW1 3272   0.248   2.342   1.652
  642SOL    HW2 3273   0.131   2.453   1.681
  643SOL     OW 3274   1.369   2.812   1.660
  643SOL    HW1 3275   1.408   2.901   1.680
  643SOL    HW2 3276   1.379   2.792   1.563
  644SOL     OW 3277   0.815   2.434   0.325
  644SOL    HW1 3278   0.822   2.345   0.279
  644SOL    HW2 3279   0.721   2.468   0.317
  645SOL     OW 3280   1.657   2.466   1.206
  645SOL    HW1 3281   1.619   2.397   1.268
  645SOL    HW2 3282   1.739   2.430   1.162
  646SOL     OW 3283   0.252   3.426   1.744
  646SOL    HW1 3284   0.222   3.483   1.820
  646SOL    HW2 3285   0.245   3.329   1.770
  647SOL     OW 3286   0.671   2.326   1.269
  647SOL    HW1 3287   0.637   2.237   1.239
  647SOL    HW2 3288   0.697   2.380   1.189
  648SOL     OW 3289   0.473   2.362   0.191
  648SOL    HW1 3290   0.534   2.442   0.195
  648SOL    HW2 3291   0.378   2.393   0.198
  649SOL     OW 3292   1.347   2.921   1.234
  649SOL    HW1 3293   1.371   2.858   1.160
  649SOL    HW2 3294   1.257   2.961   1.216
  650SOL     OW 3295   1.302   2.717   0.309
  650SOL    HW1 3296   1.216   2.686   0.351
  650SOL    HW2 3297   1.298   2.703   0.210
  651SOL     OW 3298   1.759   3.609   1.154
  651SOL    HW1 3299   1.820   3.639   1.081
  651SOL    HW2 3300   1.721   3.520   1.132
  652SOL     OW 3301   0.083   3.120   1.022
  652SOL    HW1 3302   0.078   3.119   1.122
  652SOL    HW2 3303   0.000   3.079   0.984
  653SOL     OW 3304   0.688   3.524   1.716
  653SOL    HW1 3305   0.632   3.605   1.725
  653SOL    HW2 3306   0.740   3.528   1.630
  654SOL     OW 3307   1.726   1.997   0.523
  654SOL    HW1 3308   1.799   1.980   0.456
  654SOL    HW2 3309   1.695   1.910   0.561
  655SOL     OW 3310   1.388   3.435   0.477
  655SOL    HW1 3311   1.455   3.447   0.403
  655SOL    HW2 3312   1.348   3.524   0.500
  656SOL     OW 3313   0.130   3.656   1.851
  656SOL    HW1 3314   0.089   3.582   1.904
  656SOL    HW2 3315   0.194   3.707   1.909
  657SOL     OW 3316   1.280   2.789   0.672
  657SOL    HW1 3317   1.340   2.708   0.674
  657SOL    HW2 3318   1.320   2.858   0.612
  658SOL     OW 3319   0.830   3.135   1.422
  658SOL    HW1 3320   0.825   3.168   1.517
  658SOL    HW2 3321   0.744   3.154   1.376
  659SOL     OW 3322   0.672   3.478   0.154
  659SOL    HW1 3323   0.681   3.488   0.055
  659SOL    HW2 3324   0.632   3.389   0.175
  660SOL     OW 3325   1.650   3.582   1.394
  660SOL    HW1 3326   1.703   3.592   1.310
  660SOL    HW2 3327   1.623   3.672   1.428
  661SOL     OW 3328   1.841   2.037   0.963
  661SOL    HW1 3329   1.880   1.952   0.927
  661SOL    HW2 3330   1.743   2.039   0.944
  662SOL     OW 3331   1.194   3.474   0.031
  662SOL    HW1 3332   1.200   3.381   0.068
  662SOL    HW2 3333   1.135   3.474  -0.049
  663SOL     OW 3334   0.822   2.864   1.372
  663SOL    HW1 3335   0.862   2.863   1.280
  663SOL    HW2 3336   0.832   2.956   1.412
  664SOL     OW 3337   0.916   2.772   0.291
  664SOL    HW1 3338   0.979   2.810   0.223
  664SOL    HW2 3339   0.956   2.689   0.330
  665SOL     OW 3340   1.504   3.469   0.044
  665SOL    HW1 3341   1.412   3.506   0.051
  665SOL    HW2 3342   1.542   3.489  -0.046
  666SOL     OW 3343   0.372   3.150   1.490
  666SOL    HW1 3344   0.359   3.243   1.456
  666SOL    HW2 3345   0.288   3.098   1.477
  667SOL     OW 3346   1.614   3.154   1.289
  667SOL    HW1 3347   1.674   3.157   1.369
  667SOL    HW2 3348   1.539   3.218   1.302
  668SOL     OW 3349   1.039   2.960   0.696
  668SOL    HW1 3350   0.969   2.913   0.750
  668SOL    HW2 3351   1.098   2.892   0.653
  669SOL     OW 3352   0.590   3.349   0.491
  669SOL    HW1 3353   0.632   3.291   0.421
  669SOL    HW2 3354   0.546   3.428   0.447
  670SOL     OW 3355   1.709   2.247   1.381
  670SOL    HW1 3356   1.782   2.316   1.385
  670SOL    HW2 3357   1.737   2.172   1.322
  671SOL     OW 3358   0.255   3.210   0.290
  671SOL    HW1 3359   0.159   3.211   0.263
  671SOL    HW2 3360   0.267   3.263   0.374
  672SOL     OW 3361   0.105   2.875   1.726
  672SOL    HW1 3362   0.028   2.842   1.780
  672SOL    HW2 3363   0.190   2.845   1.768
  673SOL     OW 3364   0.075   2.207   0.033
  673SOL    HW1 3365  -0.017   2.179   0.004
  673SOL    HW2 3366   0.106   2.284  -0.023
  674SOL     OW 3367   1.440   2.718   1.398
  674SOL    HW1 3368   1.383   2.770   1.335
  674SOL    HW2 3369   1.536   2.730   1.374
  675SOL     OW 3370   0.072   2.028   0.318
  675SOL    HW1 3371   0.055   2.111   0.264
  675SOL    HW2 3372   0.162   1.991   0.296
  676SOL     OW 3373   1.183   3.197   0.119
  676SOL    HW1 3374   1.084   3.186   0.121
  676SOL    HW2 3375   1.217   3.212   0.212
  677SOL     OW 3376   0.613   2.704   1.431
  677SOL    HW1 3377   0.669   2.785   1.414
  677SOL    HW2 3378   0.672   2.624   1.434
  678SOL     OW 3379   1.493   3.629   0.959
  678SOL    HW1 3380   1.526   3.693   0.890
  678SOL    HW2 3381   1.559   3.623   1.034
  679SOL     OW 3382   0.716   2.427   1.708
  679SOL    HW1 3383   0.735   2.492   1.782
  679SOL    HW2 3384   0.776   2.347   1.717
  680SOL     OW 3385   1.450   3.082   1.633
  680SOL    HW1 3386   1.441   3.072   1.732
  680SOL    HW2 3387   1.546   3.075   1.607
  681SOL     OW 3388   0.390   3.603   1.560
  681SOL    HW1 3389   0.299   3.644   1.558
  681SOL    HW2 3390   0.383   3.509   1.592
  682SOL     OW 3391   1.674   2.745   1.254
  682SOL    HW1 3392   1.647   2.656   1.217
  682SOL    HW2 3393   1.675   2.813   1.181
  683SOL     OW 3394   1.225   2.187   0.449
  683SOL    HW1 3395   1.290   2.113   0.438
  683SOL    HW2 3396   1.245   2.237   0.533
  684SOL     OW 3397   0.594   2.607   0.652
  684SOL    HW1 3398   0.644   2.692   0.633
  684SOL    HW2 3399   0.506   2.609   0.604
  685SOL     OW 3400   1.777   2.204   1.642
  685SOL    HW1 3401   1.760   2.235   1.548
  685SOL    HW2 3402   1.693   2.167   1.680
  686SOL     OW 3403   1.730   2.796   1.517
  686SOL    HW1 3404   1.768   2.887   1.532
  686SOL    HW2 3405   1.722   2.779   1.418
  687SOL     OW 3406   0.859   3.236   0.016
  687SOL    HW1 3407   0.813   3.251   0.104
  687SOL    HW2 3408   0.903   3.321  -0.014
  688SOL     OW 3409   0.661   3.652   0.953
  688SOL    HW1 3410   0.615   3.740   0.940
  688SOL    HW2 3411   0.760   3.664   0.946
  689SOL     OW 3412   0.859   2.818   0.861
  689SOL    HW1 3413   0.913   2.749   0.909
  689SOL    HW2 3414   0.827   2.887   0.927
  690SOL     OW 3415   1.083   2.846   0.087
  690SOL    HW1 3416   1.060   2.899   0.005
  690SOL    HW2 3417   1.164   2.790   0.068
  691SOL     OW 3418   1.861   3.431   0.851
  691SOL    HW1 3419   1.790   3.419   0.781
  691SOL    HW2 3420   1.862   3.352   0.911
  692SOL     OW 3421   0.221   3.176   1.844
  692SOL    HW1 3422   0.156   3.103   1.823
  692SOL    HW2 3423   0.225   3.190   1.942
  693SOL     OW 3424   0.079   3.102   0.653
  693SOL    HW1 3425   0.078   3.055   0.741
  693SOL    HW2 3426   0.161   3.074   0.602
  694SOL     OW 3427   0.672   3.253   1.624
  694SOL    HW1 3428   0.594   3.203   1.662
  694SOL    HW2 3429   0.669   3.348   1.655
  695SOL     OW 3430   1.824   2.054   1.227
  695SOL    HW1 3431   1.820   1.964   1.271
  695SOL    HW2 3432   1.827   2.043   1.128
  696SOL     OW 3433   0.812   3.448   0.687
  696SOL    HW1 3434   0.844   3.458   0.593
  696SOL    HW2 3435   0.733   3.386   0.689
  697SOL     OW 3436   1.424   2.076   1.112
  697SOL    HW1 3437   1.476   2.011   1.167
  697SOL    HW2 3438   1.375   2.139   1.173
  698SOL     OW 3439   1.001   1.896   1.154
  698SOL    HW1 3440   0.938   1.824   1.123
  698SOL    HW2 3441   1.094   1.860   1.154
  699SOL     OW 3442   0.770   3.192   0.301
  699SOL    HW1 3443   0.724   3.105   0.318
  699SOL    HW2 3444   0.861   3.189   0.342
  700SOL     OW 3445   0.618   3.429   1.284
  700SOL    HW1 3446   0.613   3.511   1.341
  700SOL    HW2 3447   0.707   3.426   1.239
  701SOL     OW 3448   1.300   2.315   0.691
  701SOL    HW1 3449   1.241   2.395   0.695
  701SOL    HW2 3450   1.315   2.280   0.784
  702SOL     OW 3451   1.593   2.083   0.882
  702SOL    HW1 3452   1.509   2.082   0.936
  702SOL    HW2 3453   1.595   2.166   0.826
  703SOL     OW 3454   0.039   2.939   0.300
  703SOL    HW1 3455   0.138   2.928   0.291
  703SOL    HW2 3456  -0.001   2.853   0.332
  704SOL     OW 3457   0.875   3.508   0.337
  704SOL    HW1 3458   0.798   3.473   0.283
  704SOL    HW2 3459   0.843   3.579   0.399
  705SOL     OW 3460   0.230   2.490   1.975
  705SOL    HW1 3461   0.137   2.488   2.012
  705SOL    HW2 3462   0.231   2.451   1.883
  706SOL     OW 3463   0.225   2.137   2.858
  706SOL    HW1 3464   0.260   2.120   2.950
  706SOL    HW2 3465   0.137   2.092   2.846
  707SOL     OW 3466   0.019   2.230   2.509
  707SOL    HW1 3467  -0.063   2.273   2.548
  707SOL    HW2 3468  -0.009   2.157   2.446
  708SOL     OW 3469   0.569   3.137   3.027
  708SOL    HW1 3470   0.476   3.130   2.990
  708SOL    HW2 3471   0.580   3.226   3.071
  709SOL     OW 3472   1.555   3.373   2.565
  709SOL    HW1 3473   1.498   3.357   2.646
  709SOL    HW2 3474   1.496   3.383   2.485
  710SOL     OW 3475   1.135   2.565   2.579
  710SOL    HW1 3476   1.192   2.643   2.554
  710SOL    HW2 3477   1.075   2.591   2.655
  711SOL     OW 3478   1.755   2.469   2.093
  711SOL    HW1 3479   1.743   2.456   1.994
  711SOL    HW2 3480   1.725   2.388   2.142
  712SOL     OW 3481   0.768   3.006   2.885
  712SOL    HW1 3482   0.690   3.023   2.945
  712SOL    HW2 3483   0.802   3.093   2.849
  713SOL     OW 3484   0.685   2.874   2.527
  713SOL    HW1 3485   0.754   2.858   2.597
  713SOL    HW2 3486   0.612   2.931   2.565
  714SOL     OW 3487   0.686   3.023   3.665
  714SOL    HW1 3488   0.746   3.102   3.679
  714SOL    HW2 3489   0.600   3.054   3.624
  715SOL     OW 3490   0.335   3.297   2.923
  715SOL    HW1 3491   0.257   3.266   2.870
  715SOL    HW2 3492   0.393   3.355   2.866
  716SOL     OW 3493   1.460   3.367   3.201
  716SOL    HW1 3494   1.484   3.461   3.227
  716SOL    HW2 3495   1.444   3.313   3.283
  717SOL     OW 3496   0.438   2.254   3.361
  717SOL    HW1 3497   0.520   2.198   3.370
  717SOL    HW2 3498   0.357   2.196   3.365
  718SOL     OW 3499   1.603   2.309   2.599
  718SOL    HW1 3500   1.529   2.355   2.549
  718SOL    HW2 3501   1.654   2.377   2.652
  719SOL     OW 3502   0.231   3.575   2.345
  719SOL    HW1 3503   0.265   3.652   2.399
  719SOL    HW2 3504   0.275   3.575   2.255
  720SOL     OW 3505   1.127   3.203   3.552
  720SOL    HW1 3506   1.174   3.203   3.640
  720SOL    HW2 3507   1.079   3.116   3.541
  721SOL     OW 3508   0.230   3.296   2.400
  721SOL    HW1 3509   0.204   3.392   2.400
  721SOL    HW2 3510   0.159   3.242   2.445
  722SOL     OW 3511   0.240   2.953   2.748
  722SOL    HW1 3512   0.254   2.869   2.800
  722SOL    HW2 3513   0.185   3.017   2.803
  723SOL     OW 3514   0.620   3.648   3.301
  723SOL    HW1 3515   0.528   3.631   3.336
  723SOL    HW2 3516   0.648   3.740   3.327
  724SOL     OW 3517   0.606   2.826   1.985
  724SOL    HW1 3518   0.613   2.910   1.931
  724SOL    HW2 3519   0.652   2.839   2.073
  725SOL     OW 3520   1.594   1.976   3.342
  725SOL    HW1 3521   1.576   2.043   3.270
  725SOL    HW2 3522   1.591   2.022   3.431
  726SOL     OW 3523   0.122   2.505   2.425
  726SOL    HW1 3524   0.077   2.417   2.442
  726SOL    HW2 3525   0.121   2.559   2.509
  727SOL     OW 3526   1.842   3.629   2.221
  727SOL    HW1 3527   1.896   3.600   2.301
  727SOL    HW2 3528   1.872   3.719   2.192
  728SOL     OW 3529   0.027   3.458   1.979
  728SOL    HW1 3530   0.008   3.362   2.000
  728SOL    HW2 3531  -0.006   3.516   2.054
  729SOL     OW 3532   1.689   2.784   2.474
  729SOL    HW1 3533   1.784   2.755   2.482
  729SOL    HW2 3534   1.681   2.849   2.399
  730SOL     OW 3535   1.641   2.970   2.294
  730SOL    HW1 3536   1.727   2.972   2.242
  730SOL    HW2 3537   1.655   3.017   2.382
  731SOL     OW 3538   0.113   2.599   3.459
  731SOL    HW1 3539   0.201   2.586   3.504
  731SOL    HW2 3540   0.100   2.696   3.437
  732SOL     OW 3541   0.613   3.227   2.588
  732SOL    HW1 3542   0.564   3.140   2.597
  732SOL    HW2 3543   0.590   3.270   2.501
  733SOL     OW 3544   1.293   3.090   3.285
  733SOL    HW1 3545   1.330   3.017   3.227
  733SOL    HW2 3546   1.345   3.095   3.370
  734SOL     OW 3547   0.809   1.866   2.364
  734SOL    HW1 3548   0.849   1.957   2.355
  734SOL    HW2 3549   0.709   1.874   2.370
  735SOL     OW 3550   0.197   2.838   3.126
  735SOL    HW1 3551   0.286   2.793   3.112
  735SOL    HW2 3552   0.124   2.773   3.107
  736SOL     OW 3553   1.525   2.861   2.052
  736SOL    HW1 3554   1.462   2.785   2.065
  736SOL    HW2 3555   1.573   2.879   2.138
  737SOL     OW 3556   1.187   3.654   3.478
  737SOL    HW1 3557   1.211   3.714   3.402
  737SOL    HW2 3558   1.194   3.559   3.448
  738SOL     OW 3559   0.317   2.113   3.663
  738SOL    HW1 3560   0.388   2.184   3.669
  738SOL    HW2 3561   0.229   2.152   3.691
  739SOL     OW 3562   1.466   3.279   2.815
  739SOL    HW1 3563   1.407   3.285   2.895
  739SOL    HW2 3564   1.451   3.191   2.769
  740SOL     OW 3565   1.667   3.576   2.434
  740SOL    HW1 3566   1.626   3.553   2.346
  740SOL    HW2 3567   1.649   3.502   2.499
  741SOL     OW 3568   0.598   2.591   2.132
  741SOL    HW1 3569   0.622   2.660   2.064
  741SOL    HW2 3570   0.520   2.624   2.186
  742SOL     OW 3571   1.281   2.207   2.806
  742SOL    HW1 3572   1.195   2.157   2.793
  742SOL    HW2 3573   1.343   2.153   2.862
  743SOL     OW 3574   1.576   3.524   2.169
  743SOL    HW1 3575   1.665   3.570   2.172
  743SOL    HW2 3576   1.555   3.500   2.074
  744SOL     OW 3577   0.807   2.467   3.327
  744SOL    HW1 3578   0.760   2.464   3.416
  744SOL    HW2 3579   0.756   2.412   3.261
  745SOL     OW 3580   1.394   2.331   3.536
  745SOL    HW1 3581   1.374   2.374   3.624
  745SOL    HW2 3582   1.472   2.269   3.545
  746SOL     OW 3583   0.973   2.752   3.434
  746SOL    HW1 3584   1.019   2.668   3.405
  746SOL    HW2 3585   0.917   2.786   3.359
  747SOL     OW 3586   0.991   2.272   3.104
  747SOL    HW1 3587   0.914   2.306   3.158
  747SOL    HW2 3588   0.957   2.221   3.025
  748SOL     OW 3589   1.041   2.563   2.291
  748SOL    HW1 3590   1.067   2.559   2.387
  748SOL    HW2 3591   0.956   2.512   2.277
  749SOL     OW 3592   0.076   2.673   2.651
  749SOL    HW1 3593   0.175   2.661   2.660
  749SOL    HW2 3594   0.052   2.768   2.672
  750SOL     OW 3595   0.130   3.683   3.433
  750SOL    HW1 3596   0.120   3.668   3.532
  750SOL    HW2 3597   0.044   3.719   3.397
  751SOL     OW 3598   0.865   2.210   2.057
  751SOL    HW1 3599   0.924   2.273   2.008
  751SOL    HW2 3600   0.884   2.116   2.028
  752SOL     OW 3601   1.362   3.006   2.407
  752SOL    HW1 3602   1.445   2.977   2.359
  752SOL    HW2 3603   1.313   3.073   2.351
  753SOL     OW 3604   0.550   2.058   2.747
  753SOL    HW1 3605   0.545   2.053   2.847
  753SOL    HW2 3606   0.552   2.154   2.718
  754SOL     OW 3607   1.008   3.318   2.339
  754SOL    HW1 3608   0.962   3.390   2.287
  754SOL    HW2 3609   1.004   3.338   2.437
  755SOL     OW 3610   0.351   3.663   2.715
  755SOL    HW1 3611   0.401   3.577   2.721
  755SOL    HW2 3612   0.416   3.740   2.712
  756SOL     OW 3613   1.795   2.928   2.735
  756SOL    HW1 3614   1.733   2.913   2.659
  756SOL    HW2 3615   1.743   2.939   2.820
  757SOL     OW 3616   1.227   3.412   3.368
  757SOL    HW1 3617   1.233   3.335   3.432
  757SOL    HW2 3618   1.175   3.386   3.288
  758SOL     OW 3619   0.321   2.805   2.104
  758SOL    HW1 3620   0.403   2.844   2.062
  758SOL    HW2 3621   0.294   2.723   2.055
  759SOL     OW 3622   1.458   2.597   2.590
  759SOL    HW1 3623   1.453   2.532   2.665
  759SOL    HW2 3624   1.538   2.656   2.603
  760SOL     OW 3625   1.111   3.638   2.099
  760SOL    HW1 3626   1.051   3.576   2.149
  760SOL    HW2 3627   1.142   3.594   2.014
  761SOL     OW 3628   0.202   2.147   3.360
  761SOL    HW1 3629   0.122   2.207   3.347
  761SOL    HW2 3630   0.192   2.098   3.446
  762SOL     OW 3631   1.632   3.239   1.943
  762SOL    HW1 3632   1.600   3.333   1.933
  762SOL    HW2 3633   1.556   3.176   1.931
  763SOL     OW 3634   0.464   3.605   2.185
  763SOL    HW1 3635   0.497   3.644   2.271
  763SOL    HW2 3636   0.540   3.598   2.120
  764SOL     OW 3637   1.400   1.969   2.288
  764SOL    HW1 3638   1.376   1.932   2.198
  764SOL    HW2 3639   1.499   1.985   2.292
  765SOL     OW 3640   0.249   3.647   3.103
  765SOL    HW1 3641   0.306   3.582   3.153
  765SOL    HW2 3642   0.233   3.614   3.010
  766SOL     OW 3643   0.940   3.560   2.766
  766SOL    HW1 3644   1.020   3.503   2.787
  766SOL    HW2 3645   0.891   3.520   2.689
  767SOL     OW 3646   0.382   2.562   2.342
  767SOL    HW1 3647   0.427   2.472   2.339
  767SOL    HW2 3648   0.288   2.551   2.375
  768SOL     OW 3649   1.547   2.084   3.591
  768SOL    HW1 3650   1.542   2.121   3.683
  768SOL    HW2 3651   1.475   2.015   3.579
  769SOL     OW 3652   0.614   1.984   1.979
  769SOL    HW1 3653   0.712   1.962   1.986
  769SOL    HW2 3654   0.583   1.967   1.886
  770SOL     OW 3655   0.781   2.126   3.611
  770SOL    HW1 3656   0.848   2.065   3.654
  770SOL    HW2 3657   0.708   2.145   3.676
  771SOL     OW 3658   0.888   3.376   3.057
  771SOL    HW1 3659   0.865   3.351   2.963
  771SOL    HW2 3660   0.949   3.307   3.096
  772SOL     OW 3661   1.351   2.452   3.295
  772SOL    HW1 3662   1.379   2.409   3.380
  772SOL    HW2 3663   1.376   2.548   3.296
  773SOL     OW 3664   0.803   3.264   2.786
  773SOL    HW1 3665   0.893   3.278   2.744
  773SOL    HW2 3666   0.732   3.266   2.715
  774SOL     OW 3667   0.922   2.365   2.761
  774SOL    HW1 3668   0.897   2.356   2.665
  774SOL    HW2 3669   0.970   2.283   2.792
  775SOL     OW 3670   0.539   1.926   2.374
  775SOL    HW1 3671   0.458   1.927   2.432
  775SOL    HW2 3672   0.542   2.009   2.319
  776SOL     OW 3673   1.434   3.050   1.903
  776SOL    HW1 3674   1.466   2.974   1.960
  776SOL    HW2 3675   1.342   3.077   1.933
  777SOL     OW 3676   0.297   1.897   2.033
  777SOL    HW1 3677   0.346   1.981   2.012
  777SOL    HW2 3678   0.359   1.832   2.078
  778SOL     OW 3679   0.935   2.098   2.342
  778SOL    HW1 3680   0.887   2.139   2.264
  778SOL    HW2 3681   1.034   2.096   2.323
  779SOL     OW 3682   1.076   2.545   3.326
  779SOL    HW1 3683   0.996   2.484   3.329
  779SOL    HW2 3684   1.157   2.492   3.302
  780SOL     OW 3685   1.227   3.432   2.655
  780SOL    HW1 3686   1.248   3.506   2.590
  780SOL    HW2 3687   1.295   3.432   2.728
  781SOL     OW 3688   0.459   3.014   2.603
  781SOL    HW1 3689   0.388   2.987   2.668
  781SOL    HW2 3690   0.433   2.986   2.510
  782SOL     OW 3691   1.271   3.659   2.453
  782SOL    HW1 3692   1.315   3.723   2.389
  782SOL    HW2 3693   1.221   3.711   2.523
  783SOL     OW 3694   1.032   2.411   1.878
  783SOL    HW1 3695   0.991   2.493   1.839
  783SOL    HW2 3696   1.096   2.437   1.951
  784SOL     OW 3697   0.078   2.418   3.248
  784SOL    HW1 3698   0.170   2.417   3.207
  784SOL    HW2 3699   0.072   2.492   3.315
  785SOL     OW 3700   0.561   2.084   3.009
  785SOL    HW1 3701   0.599   2.000   3.046
  785SOL    HW2 3702   0.473   2.103   3.053
  786SOL     OW 3703   0.866   2.316   2.504
  786SOL    HW1 3704   0.834   2.388   2.442
  786SOL    HW2 3705   0.890   2.235   2.451
  787SOL     OW 3706   1.017   1.901   2.615
  787SOL    HW1 3707   0.945   1.906   2.546
  787SOL    HW2 3708   0.993   1.832   2.684
  788SOL     OW 3709   1.429   3.035   2.729
  788SOL    HW1 3710   1.374   2.951   2.722
  788SOL    HW2 3711   1.455   3.064   2.637
  789SOL     OW 3712   1.466   2.452   2.854
  789SOL    HW1 3713   1.436   2.357   2.861
  789SOL    HW2 3714   1.539   2.468   2.920
  790SOL     OW 3715   1.857   2.695   2.239
  790SOL    HW1 3716   1.899   2.631   2.303
  790SOL    HW2 3717   1.819   2.644   2.161
  791SOL     OW 3718   0.488   3.247   2.036
  791SOL    HW1 3719   0.401   3.232   2.083
  791SOL    HW2 3720   0.471   3.273   1.941
  792SOL     OW 3721   1.664   3.142   2.519
  792SOL    HW1 3722   1.763   3.150   2.533
  792SOL    HW2 3723   1.619   3.226   2.550
  793SOL     OW 3724   1.390   2.437   1.940
  793SOL    HW1 3725   1.336   2.416   2.021
  793SOL    HW2 3726   1.481   2.396   1.949
  794SOL     OW 3727   0.527   2.118   2.190
  794SOL    HW1 3728   0.554   2.059   2.115
  794SOL    HW2 3729   0.527   2.213   2.159
  795SOL     OW 3730   1.064   3.209   3.202
  795SOL    HW1 3731   0.984   3.186   3.257
  795SOL    HW2 3732   1.147   3.183   3.251
  796SOL     OW 3733   1.592   3.491   3.487
  796SOL    HW1 3734   1.619   3.525   3.397
  796SOL    HW2 3735   1.671   3.453   3.533
  797SOL     OW 3736   1.111   3.057   2.962
  797SOL    HW1 3737   1.071   3.101   3.043
  797SOL    HW2 3738   1.070   3.094   2.879
  798SOL     OW 3739   1.638   2.961   2.941
  798SOL    HW1 3740   1.643   3.042   3.000
  798SOL    HW2 3741   1.552   2.963   2.890
  799SOL     OW 3742   0.915   1.951   3.264
  799SOL    HW1 3743   0.940   1.931   3.169
  799SOL    HW2 3744   0.987   2.007   3.306
  800SOL     OW 3745   0.980   2.978   3.581
  800SOL    HW1 3746   0.881   2.984   3.591
  800SOL    HW2 3747   1.003   2.898   3.525
  801SOL     OW 3748   0.705   2.912   2.230
  801SOL    HW1 3749   0.691   2.919   2.329
  801SOL    HW2 3750   0.789   2.861   2.212
  802SOL     OW 3751   0.410   2.675   3.113
  802SOL    HW1 3752   0.496   2.687   3.163
  802SOL    HW2 3753   0.368   2.588   3.140
  803SOL     OW 3754   1.274   2.248   3.124
  803SOL    HW1 3755   1.295   2.322   3.188
  803SOL    HW2 3756   1.185   2.265   3.081
  804SOL     OW 3757   0.064   3.426   3.193
  804SOL    HW1 3758   0.018   3.508   3.159
  804SOL    HW2 3759   0.162   3.445   3.202
  805SOL     OW 3760   0.367   2.962   2.363
  805SOL    HW1 3761   0.360   3.045   2.307
  805SOL    HW2 3762   0.371   2.882   2.303
  806SOL     OW 3763   0.566   2.399   2.727
  806SOL    HW1 3764   0.578   2.465   2.653
  806SOL    HW2 3765   0.612   2.433   2.810
  807SOL     OW 3766   1.252   3.210   2.250
  807SOL    HW1 3767   1.302   3.287   2.290
  807SOL    HW2 3768   1.157   3.212   2.282
  808SOL     OW 3769   1.272   3.307   3.004
  808SOL    HW1 3770   1.319   3.320   3.091
  808SOL    HW2 3771   1.206   3.233   3.013
  809SOL     OW 3772   1.582   2.501   2.334
  809SOL    HW1 3773   1.551   2.562   2.407
  809SOL    HW2 3774   1.632   2.553   2.265
  810SOL     OW 3775   0.354   3.372   3.191
  810SOL    HW1 3776   0.333   3.328   3.104
  810SOL    HW2 3777   0.451   3.398   3.194
  811SOL     OW 3778   0.402   2.613   3.460
  811SOL    HW1 3779   0.470   2.668   3.413
  811SOL    HW2 3780   0.442   2.525   3.487
  812SOL     OW 3781   1.587   2.641   3.532
  812SOL    HW1 3782   1.495   2.679   3.527
  812SOL    HW2 3783   1.647   2.688   3.467
  813SOL     OW 3784   1.013   1.967   3.632
  813SOL    HW1 3785   1.019   2.052   3.580
  813SOL    HW2 3786   1.045   1.891   3.575
  814SOL     OW 3787   0.504   1.912   3.602
  814SOL    HW1 3788   0.462   1.855   3.532
  814SOL    HW2 3789   0.438   1.981   3.634
  815SOL     OW 3790   0.573   2.732   2.891
  815SOL    HW1 3791   0.617   2.821   2.882
  815SOL    HW2 3792   0.510   2.732   2.968
  816SOL     OW 3793   1.360   2.724   2.907
  816SOL    HW1 3794   1.285   2.724   2.841
  816SOL    HW2 3795   1.397   2.632   2.916
  817SOL     OW 3796   1.209   2.387   2.137
  817SOL    HW1 3797   1.222   2.303   2.191
  817SOL    HW2 3798   1.180   2.461   2.197
  818SOL     OW 3799   0.307   2.075   3.093
  818SOL    HW1 3800   0.284   2.112   3.183
  818SOL    HW2 3801   0.277   1.980   3.087
  819SOL     OW 3802   0.037   3.172   3.144
  819SOL    HW1 3803   0.090   3.123   3.212
  819SOL    HW2 3804   0.059   3.270   3.149
  820SOL     OW 3805   0.732   2.496   2.926
  820SOL    HW1 3806   0.791   2.470   2.850
  820SOL    HW2 3807   0.704   2.592   2.915
  821SOL     OW 3808   1.728   2.797   3.716
  821SOL    HW1 3809   1.682   2.790   3.627
  821SOL    HW2 3810   1.666   2.841   3.782
  822SOL     OW 3811   0.307   1.925   2.480
  822SOL    HW1 3812   0.296   2.019   2.513
  822SOL    HW2 3813   0.302   1.862   2.557
  823SOL     OW 3814   1.622   2.229   2.236
  823SOL    HW1 3815   1.624   2.153   2.300
  823SOL    HW2 3816   1.574   2.306   2.276
  824SOL     OW 3817   1.023   2.628   2.828
  824SOL    HW1 3818   1.038   2.649   2.924
  824SOL    HW2 3819   0.993   2.533   2.819
  825SOL     OW 3820   0.980   3.435   3.562
  825SOL    HW1 3821   0.960   3.479   3.474
  825SOL    HW2 3822   1.019   3.344   3.546
  826SOL     OW 3823   1.859   3.380   3.467
  826SOL    HW1 3824   1.873   3.407   3.372
  826SOL    HW2 3825   1.942   3.402   3.520
  827SOL     OW 3826   1.540   2.136   1.987
  827SOL    HW1 3827   1.479   2.061   2.010
  827SOL    HW2 3828   1.562   2.188   2.070
  828SOL     OW 3829   1.303   2.700   1.904
  828SOL    HW1 3830   1.337   2.607   1.919
  828SOL    HW2 3831   1.321   2.727   1.809
  829SOL     OW 3832   1.068   3.195   2.711
  829SOL    HW1 3833   1.075   3.111   2.656
  829SOL    HW2 3834   1.130   3.264   2.675
  830SOL     OW 3835   0.319   2.672   2.811
  830SOL    HW1 3836   0.412   2.708   2.816
  830SOL    HW2 3837   0.313   2.587   2.863
  831SOL     OW 3838   0.339   2.371   2.868
  831SOL    HW1 3839   0.287   2.288   2.851
  831SOL    HW2 3840   0.416   2.376   2.804
  832SOL     OW 3841   1.138   2.242   3.540
  832SOL    HW1 3842   1.093   2.305   3.604
  832SOL    HW2 3843   1.231   2.273   3.523
  833SOL     OW 3844   1.160   2.069   3.339
  833SOL    HW1 3845   1.160   2.133   3.416
  833SOL    HW2 3846   1.188   2.117   3.256
  834SOL     OW 3847   0.088   3.663   2.789
  834SOL    HW1 3848   0.046   3.577   2.762
  834SOL    HW2 3849   0.182   3.666   2.755
  835SOL     OW 3850   0.504   3.430   2.772
  835SOL    HW1 3851   0.570   3.504   2.781
  835SOL    HW2 3852   0.548   3.351   2.730
  836SOL     OW 3853   1.002   2.658   3.100
  836SOL    HW1 3854   1.043   2.626   3.186
  836SOL    HW2 3855   0.906   2.631   3.097
  837SOL     OW 3856   0.040   2.406   2.976
  837SOL    HW1 3857   0.125   2.373   2.935
  837SOL    HW2 3858   0.053   2.421   3.074
  838SOL     OW 3859   0.189   2.382   3.584
  838SOL    HW1 3860   0.248   2.342   3.514
  838SOL    HW2 3861   0.131   2.453   3.543
  839SOL     OW 3862   0.815   2.434   2.187
  839SOL    HW1 3863   0.822   2.345   2.141
  839SOL    HW2 3864   0.721   2.468   2.179
  840SOL     OW 3865   1.657   2.466   3.068
  840SOL    HW1 3866   1.619   2.397   3.130
  840SOL    HW2 3867   1.739   2.430   3.024
  841SOL     OW 3868   0.252   3.426   3.606
  841SOL    HW1 3869   0.222   3.483   3.682
  841SOL    HW2 3870   0.245   3.329   3.632
  842SOL     OW 3871   0.671   2.326   3.131
  842SOL    HW1 3872   0.637   2.237   3.101
  842SOL    HW2 3873   0.697   2.380   3.051
  843SOL     OW 3874   0.930   3.540   3.327
  843SOL    HW1 3875   0.906   3.522   3.232
  843SOL    HW2 3876   0.960   3.634   3.337
  844SOL     OW 3877   0.473   2.362   2.053
  844SOL    HW1 3878   0.534   2.442   2.057
  844SOL    HW2 3879   0.378   2.393   2.060
  845SOL     OW 3880   1.347   2.921   3.096
  845SOL    HW1 3881   1.371   2.858   3.022
  845SOL    HW2 3882   1.257   2.961   3.078
  846SOL     OW 3883   1.302   2.717   2.171
  846SOL    HW1 3884   1.216   2.686   2.213
  846SOL    HW2 3885   1.298   2.703   2.072
  847SOL     OW 3886   1.759   3.609   3.016
  847SOL    HW1 3887   1.820   3.639   2.943
  847SOL    HW2 3888   1.721   3.520   2.994
  848SOL     OW 3889   1.252   3.593   2.990
  848SOL    HW1 3890   1.336   3.598   2.936
  848SOL    HW2 3891   1.229   3.497   3.008
  849SOL     OW 3892   0.083   3.120   2.884
  849SOL    HW1 3893   0.078   3.119   2.984
  849SOL    HW2 3894   0.000   3.079   2.846
  850SOL     OW 3895   0.688   3.524   3.578
  850SOL    HW1 3896   0.632   3.605   3.587
  850SOL    HW2 3897   0.740   3.528   3.492
  851SOL     OW 3898   1.726   1.997   2.385
  851SOL    HW1 3899   1.799   1.980   2.318
  851SOL    HW2 3900   1.695   1.910   2.423
  852SOL     OW 3901   1.388   3.435   2.339
  852SOL    HW1 3902   1.455   3.447   2.265
  852SOL    HW2 3903   1.348   3.524   2.362
  853SOL     OW 3904   0.130   3.656   3.713
  853SOL    HW1 3905   0.089   3.582   3.766
  853SOL    HW2 3906   0.194   3.707   3.771
  854SOL     OW 3907   1.280   2.789   2.534
  854SOL    HW1 3908   1.340   2.708   2.536
  854SOL    HW2 3909   1.320   2.858   2.474
  855SOL     OW 3910   0.830   3.135   3.284
  855SOL    HW1 3911   0.825   3.168   3.379
  855SOL    HW2 3912   0.744   3.154   3.238
  856SOL     OW 3913   0.672   3.478   2.016
  856SOL    HW1 3914   0.681   3.488   1.917
  856SOL    HW2 3915   0.632   3.389   2.037
  857SOL     OW 3916   1.650   3.582   3.256
  857SOL    HW1 3917   1.703   3.592   3.172
  857SOL    HW2 3918   1.623   3.672   3.290
  858SOL     OW 3919   1.841   2.037   2.825
  858SOL    HW1 3920   1.880   1.952   2.789
  858SOL    HW2 3921   1.743   2.039   2.806
  859SOL     OW 3922   0.263   2.188   2.582
  859SOL    HW1 3923   0.184   2.239   2.548
  859SOL    HW2 3924   0.254   2.173   2.680
  860SOL     OW 3925   1.194   3.474   1.893
  860SOL    HW1 3926   1.200   3.381   1.930
  860SOL    HW2 3927   1.135   3.474   1.813
  861SOL     OW 3928   0.822   2.864   3.234
  861SOL    HW1 3929   0.862   2.863   3.142
  861SOL    HW2 3930   0.832   2.956   3.274
  862SOL     OW 3931   0.916   2.772   2.153
  862SOL    HW1 3932   0.979   2.810   2.085
  862SOL    HW2 3933   0.956   2.689   2.192
  863SOL     OW 3934   1.504   3.469   1.906
  863SOL    HW1 3935   1.412   3.506   1.913
  863SOL    HW2 3936   1.542   3.489   1.816
  864SOL     OW 3937   0.372   3.150   3.352
  864SOL    HW1 3938   0.359   3.243   3.318
  864SOL    HW2 3939   0.288   3.098   3.339
  865SOL     OW 3940   1.614   3.154   3.151
  865SOL    HW1 3941   1.674   3.157   3.231
  865SOL    HW2 3942   1.539   3.218   3.164
  866SOL     OW 3943   1.039   2.960   2.558
  866SOL    HW1 3944   0.969   2.913   2.612
  866SOL    HW2 3945   1.098   2.892   2.515
  867SOL     OW 3946   1.014   2.098   2.833
  867SOL    HW1 3947   1.006   2.062   2.740
  867SOL    HW2 3948   1.012   2.022   2.898
  868SOL     OW 3949   0.590   3.349   2.353
  868SOL    HW1 3950   0.632   3.291   2.283
  868SOL    HW2 3951   0.546   3.428   2.309
  869SOL     OW 3952   1.709   2.247   3.243
  869SOL    HW1 3953   1.782   2.316   3.247
  869SOL    HW2 3954   1.737   2.172   3.184
  870SOL     OW 3955   0.255   3.210   2.152
  870SOL    HW1 3956   0.159   3.211   2.125
  870SOL    HW2 3957   0.267   3.263   2.236
  871SOL     OW 3958   0.105   2.875   3.588
  871SOL    HW1 3959   0.028   2.842   3.642
  871SOL    HW2 3960   0.190   2.845   3.630
  872SOL     OW 3961   0.672   2.065   3.351
  872SOL    HW1 3962   0.762   2.049   3.311
  872SOL    HW2 3963   0.680   2.070   3.450
  873SOL     OW 3964   0.075   2.207   1.895
  873SOL    HW1 3965  -0.017   2.179   1.866
  873SOL    HW2 3966   0.106   2.284   1.839
  874SOL     OW 3967   1.440   2.718   3.260
  874SOL    HW1 3968   1.383   2.770   3.197
  874SOL    HW2 3969   1.536   2.730   3.236
  875SOL     OW 3970   0.072   2.028   2.180
  875SOL    HW1 3971   0.055   2.111   2.126
  875SOL    HW2 3972   0.162   1.991   2.158
  876SOL     OW 3973   1.183   3.197   1.981
  876SOL    HW1 3974   1.084   3.186   1.983
  876SOL    HW2 3975   1.217   3.212   2.074
  877SOL     OW 3976   0.613   2.704   3.293
  877SOL    HW1 3977   0.669   2.785   3.276
  877SOL    HW2 3978   0.672   2.624   3.296
  878SOL     OW 3979   1.493   3.629   2.821
  878SOL    HW1 3980   1.526   3.693   2.752
  878SOL    HW2 3981   1.559   3.623   2.896
  879SOL     OW 3982   0.716   2.427   3.570
  879SOL    HW1 3983   0.735   2.492   3.644
  879SOL    HW2 3984   0.776   2.347   3.579
  880SOL     OW 3985   0.390   3.603   3.422
  880SOL    HW1 3986   0.299   3.644   3.420
  880SOL    HW2 3987   0.383   3.509   3.454
  881SOL     OW 3988   1.674   2.745   3.116
  881SOL    HW1 3989   1.647   2.656   3.079
  881SOL    HW2 3990   1.675   2.813   3.043
  882SOL     OW 3991   1.225   2.187   2.311
  882SOL    HW1 3992   1.290   2.113   2.300
  882SOL    HW2 3993   1.245   2.237   2.395
  883SOL     OW 3994   0.594   2.607   2.514
  883SOL    HW1 3995   0.644   2.692   2.495
  883SOL    HW2 3996   0.506   2.609   2.466
  884SOL     OW 3997   1.777   2.204   3.504
  884SOL    HW1 3998   1.760   2.235   3.410
  884SOL    HW2 3999   1.693   2.167   3.542
  885SOL     OW 4000   1.730   2.796   3.379
  885SOL    HW1 4001   1.768   2.887   3.394
  885SOL    HW2 4002   1.722   2.779   3.280
  886SOL     OW 4003   0.859   3.236   1.878
  886SOL    HW1 4004   0.813   3.251   1.966
  886SOL    HW2 4005   0.903   3.321   1.848
  887SOL     OW 4006   0.661   3.652   2.815
  887SOL    HW1 4007   0.615   3.740   2.802
  887SOL    HW2 4008   0.760   3.664   2.808
  888SOL     OW 4009   0.859   2.818   2.723
  888SOL    HW1 4010   0.913   2.749   2.771
  888SOL    HW2 4011   0.827   2.887   2.789
  889SOL     OW 4012   1.083   2.846   1.949
  889SOL    HW1 4013   1.060   2.899   1.867
  889SOL    HW2 4014   1.164   2.790   1.930
  890SOL     OW 4015   1.861   3.431   2.713
  890SOL    HW1 4016   1.790   3.419   2.643
  890SOL    HW2 4017   1.862   3.352   2.773
  891SOL     OW 4018   0.079   3.102   2.515
  891SOL    HW1 4019   0.078   3.055   2.603
  891SOL    HW2 4020   0.161   3.074   2.464
  892SOL     OW 4021   0.672   3.253   3.486
  892SOL    HW1 4022   0.594   3.203   3.524
  892SOL    HW2 4023   0.669   3.348   3.517
  893SOL     OW 4024   1.824   2.054   3.089
  893SOL    HW1 4025   1.820   1.964   3.133
  893SOL    HW2 4026   1.827   2.043   2.990
  894SOL     OW 4027   0.428   2.286   2.382
  894SOL    HW1 4028   0.458   2.214   2.320
  894SOL    HW2 4029   0.389   2.246   2.465
  895SOL     OW 4030   1.705   3.349   2.966
  895SOL    HW1 4031   1.612   3.324   2.939
  895SOL    HW2 4032   1.731   3.299   3.048
  896SOL     OW 4033   0.317   2.409   3.142
  896SOL    HW1 4034   0.355   2.350   3.214
  896SOL    HW2 4035   0.357   2.383   3.054
  897SOL     OW 4036   0.812   3.448   2.549
  897SOL    HW1 4037   0.844   3.458   2.455
  897SOL    HW2 4038   0.733   3.386   2.551
  898SOL     OW 4039   1.424   2.076   2.974
  898SOL    HW1 4040   1.476   2.011   3.029
  898SOL    HW2 4041   1.375   2.139   3.035
  899SOL     OW 4042   1.001   1.896   3.016
  899SOL    HW1 4043   0.938   1.824   2.985
  899SOL    HW2 4044   1.094   1.860   3.016
  900SOL     OW 4045   0.770   3.192   2.163
  900SOL    HW1 4046   0.724   3.105   2.180
  900SOL    HW2 4047   0.861   3.189   2.204
  901SOL     OW 4048   0.618   3.429   3.146
  901SOL    HW1 4049   0.613   3.511   3.203
  901SOL    HW2 4050   0.707   3.426   3.101
  902SOL     OW 4051   1.352   1.914   2.030
  902SOL    HW1 4052   1.387   1.873   1.946
  902SOL    HW2 4053   1.262   1.876   2.050
  903SOL     OW 4054   1.300   2.315   2.553
  903SOL    HW1 4055   1.241   2.395   2.557
  903SOL    HW2 4056   1.315   2.280   2.646
  904SOL     OW 4057   1.593   2.083   2.744
  904SOL    HW1 4058   1.509   2.082   2.798
  904SOL    HW2 4059   1.595   2.166   2.688
  905SOL     OW 4060   0.039   2.939   2.162
  905SOL    HW1 4061   0.138   2.928   2.153
  905SOL    HW2 4062  -0.001   2.853   2.194
  906SOL     OW 4063   0.875   3.508   2.199
  906SOL    HW1 4064   0.798   3.473   2.145
  906SOL    HW2 4065   0.843   3.579   2.261
  907SOL     OW 4066   0.230   2.490   3.837
  907SOL    HW1 4067   0.137   2.488   3.874
  907SOL    HW2 4068   0.231   2.451   3.745
  908SOL     OW 4069   0.225   2.137   4.720
  908SOL    HW1 4070   0.260   2.120   4.812
  908SOL    HW2 4071   0.137   2.092   4.708
  909SOL     OW 4072   0.019   2.230   4.371
  909SOL    HW1 4073  -0.063   2.273   4.410
  909SOL    HW2 4074  -0.009   2.157   4.308
  910SOL     OW 4075   0.569   3.137   4.889
  910SOL    HW1 4076   0.476   3.130   4.852
  910SOL    HW2 4077   0.580   3.226   4.933
  911SOL     OW 4078   1.135   2.565   4.441
  911SOL    HW1 4079   1.192   2.643   4.416
  911SOL    HW2 4080   1.075   2.591   4.517
  912SOL     OW 4081   0.768   3.006   4.747
  912SOL    HW1 4082   0.690   3.023   4.807
  912SOL    HW2 4083   0.802   3.093   4.711
  913SOL     OW 4084   0.685   2.874   4.389
  913SOL    HW1 4085   0.754   2.858   4.459
  913SOL    HW2 4086   0.612   2.931   4.427
  914SOL     OW 4087   0.335   3.297   4.785
  914SOL    HW1 4088   0.257   3.266   4.732
  914SOL    HW2 4089   0.393   3.355   4.728
  915SOL     OW 4090   0.231   3.575   4.207
  915SOL    HW1 4091   0.265   3.652   4.261
  915SOL    HW2 4092   0.275   3.575   4.117
  916SOL     OW 4093   0.230   3.296   4.262
  916SOL    HW1 4094   0.204   3.392   4.262
  916SOL    HW2 4095   0.159   3.242   4.307
  917SOL     OW 4096   0.240   2.953   4.610
  917SOL    HW1 4097   0.254   2.869   4.662
  917SOL    HW2 4098   0.185   3.017   4.665
  918SOL     OW 4099   0.620   3.648   5.163
  918SOL    HW1 4100   0.528   3.631   5.198
  918SOL    HW2 4101   0.648   3.740   5.189
  919SOL     OW 4102   0.122   2.505   4.287
  919SOL    HW1 4103   0.077   2.417   4.304
  919SOL    HW2 4104   0.121   2.559   4.371
  920SOL     OW 4105   1.842   3.629   4.083
  920SOL    HW1 4106   1.896   3.600   4.163
  920SOL    HW2 4107   1.872   3.719   4.054
  921SOL     OW 4108   0.027   3.458   3.841
  921SOL    HW1 4109   0.008   3.362   3.862
  921SOL    HW2 4110  -0.006   3.516   3.916
  922SOL     OW 4111   1.689   2.784   4.336
  922SOL    HW1 4112   1.784   2.755   4.344
  922SOL    HW2 4113   1.681   2.849   4.261
  923SOL     OW 4114   0.613   3.227   4.450
  923SOL    HW1 4115   0.564   3.140   4.459
  923SOL    HW2 4116   0.590   3.270   4.363
  924SOL     OW 4117   0.809   1.866   4.226
  924SOL    HW1 4118   0.849   1.957   4.217
  924SOL    HW2 4119   0.709   1.874   4.232
  925SOL     OW 4120   0.197   2.838   4.988
  925SOL    HW1 4121   0.286   2.793   4.974
  925SOL    HW2 4122   0.124   2.773   4.969
  926SOL     OW 4123   1.525   2.861   3.914
  926SOL    HW1 4124   1.462   2.785   3.927
  926SOL    HW2 4125   1.573   2.879   4.000
  927SOL     OW 4126   1.466   3.279   4.677
  927SOL    HW1 4127   1.407   3.285   4.757
  927SOL    HW2 4128   1.451   3.191   4.631
  928SOL     OW 4129   1.667   3.576   4.296
  928SOL    HW1 4130   1.626   3.553   4.208
  928SOL    HW2 4131   1.649   3.502   4.361
  929SOL     OW 4132   0.598   2.591   3.994
  929SOL    HW1 4133   0.622   2.660   3.926
  929SOL    HW2 4134   0.520   2.624   4.048
  930SOL     OW 4135   1.041   2.563   4.153
  930SOL    HW1 4136   1.067   2.559   4.249
  930SOL    HW2 4137   0.956   2.512   4.139
  931SOL     OW 4138   0.076   2.673   4.513
  931SOL    HW1 4139   0.175   2.661   4.522
  931SOL    HW2 4140   0.052   2.768   4.534
  932SOL     OW 4141   0.130   3.683   5.295
  932SOL    HW1 4142   0.120   3.668   5.394
  932SOL    HW2 4143   0.044   3.719   5.259
  933SOL     OW 4144   0.865   2.210   3.919
  933SOL    HW1 4145   0.924   2.273   3.870
  933SOL    HW2 4146   0.884   2.116   3.890
  934SOL     OW 4147   1.362   3.006   4.269
  934SOL    HW1 4148   1.445   2.977   4.221
  934SOL    HW2 4149   1.313   3.073   4.213
  935SOL     OW 4150   0.550   2.058   4.609
  935SOL    HW1 4151   0.545   2.053   4.709
  935SOL    HW2 4152   0.552   2.154   4.580
  936SOL     OW 4153   1.008   3.318   4.201
  936SOL    HW1 4154   0.962   3.390   4.149
  936SOL    HW2 4155   1.004   3.338   4.299
  937SOL     OW 4156   0.351   3.663   4.577
  937SOL    HW1 4157   0.401   3.577   4.583
  937SOL    HW2 4158   0.416   3.740   4.574
  938SOL     OW 4159   1.795   2.928   4.597
  938SOL    HW1 4160   1.733   2.913   4.521
  938SOL    HW2 4161   1.743   2.939   4.682
  939SOL     OW 4162   0.464   3.605   4.047
  939SOL    HW1 4163   0.497   3.644   4.133
  939SOL    HW2 4164   0.540   3.598   3.982
  940SOL     OW 4165   1.400   1.969   4.150
  940SOL    HW1 4166   1.376   1.932   4.060
  940SOL    HW2 4167   1.499   1.985   4.154
  941SOL     OW 4168   0.249   3.647   4.965
  941SOL    HW1 4169   0.306   3.582   5.015
  941SOL    HW2 4170   0.233   3.614   4.872
  942SOL     OW 4171   0.940   3.560   4.628
  942SOL    HW1 4172   1.020   3.503   4.649
  942SOL    HW2 4173   0.891   3.520   4.551
  943SOL     OW 4174   0.382   2.562   4.204
  943SOL    HW1 4175   0.427   2.472   4.201
  943SOL    HW2 4176   0.288   2.551   4.237
  944SOL     OW 4177   0.614   1.984   3.841
  944SOL    HW1 4178   0.712   1.962   3.848
  944SOL    HW2 4179   0.583   1.967   3.748
  945SOL     OW 4180   0.803   3.264   4.648
  945SOL    HW1 4181   0.893   3.278   4.606
  945SOL    HW2 4182   0.732   3.266   4.577
  946SOL     OW 4183   0.922   2.365   4.623
  946SOL    HW1 4184   0.897   2.356   4.527
  946SOL    HW2 4185   0.970   2.283   4.654
  947SOL     OW 4186   0.539   1.926   4.236
  947SOL    HW1 4187   0.458   1.927   4.294
  947SOL    HW2 4188   0.542   2.009   4.181
  948SOL     OW 4189   0.297   1.897   3.895
  948SOL    HW1 4190   0.346   1.981   3.874
  948SOL    HW2 4191   0.359   1.832   3.940
  949SOL     OW 4192   0.935   2.098   4.204
  949SOL    HW1 4193   0.887   2.139   4.126
  949SOL    HW2 4194   1.034   2.096   4.185
  950SOL     OW 4195   1.227   3.432   4.517
  950SOL    HW1 4196   1.248   3.506   4.452
  950SOL    HW2 4197   1.295   3.432   4.590
  951SOL     OW 4198   0.459   3.014   4.465
  951SOL    HW1 4199   0.388   2.987   4.530
  951SOL    HW2 4200   0.433   2.986   4.372
  952SOL     OW 4201   1.271   3.659   4.315
  952SOL    HW1 4202   1.315   3.723   4.251
  952SOL    HW2 4203   1.221   3.711   4.385
  953SOL     OW 4204   1.032   2.411   3.740
  953SOL    HW1 4205   0.991   2.493   3.701
  953SOL    HW2 4206   1.096   2.437   3.813
  954SOL     OW 4207   0.561   2.084   4.871
  954SOL    HW1 4208   0.599   2.000   4.908
  954SOL    HW2 4209   0.473   2.103   4.915
  955SOL     OW 4210   0.866   2.316   4.366
  955SOL    HW1 4211   0.834   2.388   4.304
  955SOL    HW2 4212   0.890   2.235   4.313
  956SOL     OW 4213   1.017   1.901   4.477
  956SOL    HW1 4214   0.945   1.906   4.408
  956SOL    HW2 4215   0.993   1.832   4.546
  957SOL     OW 4216   1.429   3.035   4.591
  957SOL    HW1 4217   1.374   2.951   4.584
  957SOL    HW2 4218   1.455   3.064   4.499
  958SOL     OW 4219   1.857   2.695   4.101
  958SOL    HW1 4220   1.899   2.631   4.165
  958SOL    HW2 4221   1.819   2.644   4.023
  959SOL     OW 4222   1.390   2.437   3.802
  959SOL    HW1 4223   1.336   2.416   3.883
  959SOL    HW2 4224   1.481   2.396   3.811
  960SOL     OW 4225   0.527   2.118   4.052
  960SOL    HW1 4226   0.554   2.059   3.977
  960SOL    HW2 4227   0.527   2.213   4.021
  961SOL     OW 4228   1.111   3.057   4.824
  961SOL    HW1 4229   1.071   3.101   4.905
  961SOL    HW2 4230   1.070   3.094   4.741
  962SOL     OW 4231   1.638   2.961   4.803
  962SOL    HW1 4232   1.643   3.042   4.862
  962SOL    HW2 4233   1.552   2.963   4.752
  963SOL     OW 4234   0.410   2.675   4.975
  963SOL    HW1 4235   0.496   2.687   5.025
  963SOL    HW2 4236   0.368   2.588   5.002
  964SOL     OW 4237   0.367   2.962   4.225
  964SOL    HW1 4238   0.360   3.045   4.169
  964SOL    HW2 4239   0.371   2.882   4.165
  965SOL     OW 4240   0.566   2.399   4.589
  965SOL    HW1 4241   0.578   2.465   4.515
  965SOL    HW2 4242   0.612   2.433   4.672
  966SOL     OW 4243   1.252   3.210   4.112
  966SOL    HW1 4244   1.302   3.287   4.152
  966SOL    HW2 4245   1.157   3.212   4.144
  967SOL     OW 4246   1.272   3.307   4.866
  967SOL    HW1 4247   1.319   3.320   4.953
  967SOL    HW2 4248   1.206   3.233   4.875
  968SOL     OW 4249   1.582   2.501   4.196
  968SOL    HW1 4250   1.551   2.562   4.269
  968SOL    HW2 4251   1.632   2.553   4.127
  969SOL     OW 4252   0.354   3.372   5.053
  969SOL    HW1 4253   0.333   3.328   4.966
  969SOL    HW2 4254   0.451   3.398   5.056
  970SOL     OW 4255   0.573   2.732   4.753
  970SOL    HW1 4256   0.617   2.821   4.744
  970SOL    HW2 4257   0.510   2.732   4.830
  971SOL     OW 4258   1.209   2.387   3.999
  971SOL    HW1 4259   1.222   2.303   4.053
  971SOL    HW2 4260   1.180   2.461   4.059
  972SOL     OW 4261   0.307   2.075   4.955
  972SOL    HW1 4262   0.284   2.112   5.045
  972SOL    HW2 4263   0.277   1.980   4.949
  973SOL     OW 4264   0.037   3.172   5.006
  973SOL    HW1 4265   0.090   3.123   5.074
  973SOL    HW2 4266   0.059   3.270   5.011
  974SOL     OW 4267   0.732   2.496   4.788
  974SOL    HW1 4268   0.791   2.470   4.712
  974SOL    HW2 4269   0.704   2.592   4.777
  975SOL     OW 4270   0.307   1.925   4.342
  975SOL    HW1 4271   0.296   2.019   4.375
  975SOL    HW2 4272   0.302   1.862   4.419
  976SOL     OW 4273   1.622   2.229   4.098
  976SOL    HW1 4274   1.624   2.153   4.162
  976SOL    HW2 4275   1.574   2.306   4.138
  977SOL     OW 4276   1.023   2.628   4.690
  977SOL    HW1 4277   1.038   2.649   4.786
  977SOL    HW2 4278   0.993   2.533   4.681
  978SOL     OW 4279   1.540   2.136   3.849
  978SOL    HW1 4280   1.479   2.061   3.872
  978SOL    HW2 4281   1.562   2.188   3.932
  979SOL     OW 4282   1.303   2.700   3.766
  979SOL    HW1 4283   1.337   2.607   3.781
  979SOL    HW2 4284   1.321   2.727   3.671
  980SOL     OW 4285   1.068   3.195   4.573
  980SOL    HW1 4286   1.075   3.111   4.518
  980SOL    HW2 4287   1.130   3.264   4.537
  981SOL     OW 4288   0.319   2.672   4.673
  981SOL    HW1 4289   0.412   2.708   4.678
  981SOL    HW2 4290   0.313   2.587   4.725
  982SOL     OW 4291   0.339   2.371   4.730
  982SOL    HW1 4292   0.287   2.288   4.713
  982SOL    HW2 4293   0.416   2.376   4.666
  983SOL     OW 4294   0.088   3.663   4.651
  983SOL    HW1 4295   0.046   3.577   4.624
  983SOL    HW2 4296   0.182   3.666   4.617
  984SOL     OW 4297   0.504   3.430   4.634
  984SOL    HW1 4298   0.570   3.504   4.643
  984SOL    HW2 4299   0.548   3.351   4.592
  985SOL     OW 4300   1.002   2.658   4.962
  985SOL    HW1 4301   1.043   2.626   5.048
  985SOL    HW2 4302   0.906   2.631   4.959
  986SOL     OW 4303   0.040   2.406   4.838
  986SOL    HW1 4304   0.125   2.373   4.797
  986SOL    HW2 4305   0.053   2.421   4.936
  987SOL     OW 4306   0.815   2.434   4.049
  987SOL    HW1 4307   0.822   2.345   4.003
  987SOL    HW2 4308   0.721   2.468   4.041
  988SOL     OW 4309   0.930   3.540   5.189
  988SOL    HW1 4310   0.906   3.522   5.094
  988SOL    HW2 4311   0.960   3.634   5.199
  989SOL     OW 4312   0.473   2.362   3.915
  989SOL    HW1 4313   0.534   2.442   3.919
  989SOL    HW2 4314   0.378   2.393   3.922
  990SOL     OW 4315   1.347   2.921   4.958
  990SOL    HW1 4316   1.371   2.858   4.884
  990SOL    HW2 4317   1.257   2.961   4.940
  991SOL     OW 4318   1.302   2.717   4.033
  991SOL    HW1 4319   1.216   2.686   4.075
  991SOL    HW2 4320   1.298   2.703   3.934
  992SOL     OW 4321   1.759   3.609   4.878
  992SOL    HW1 4322   1.820   3.639   4.805
  992SOL    HW2 4323   1.721   3.520   4.856
  993SOL     OW 4324   1.252   3.593   4.852
  993SOL    HW1 4325   1.336   3.598   4.798
  993SOL    HW2 4326   1.229   3.497   4.870
  994SOL     OW 4327   0.083   3.120   4.746
  994SOL    HW1 4328   0.078   3.119   4.846
  994SOL    HW2 4329   0.000   3.079   4.708
  995SOL     OW 4330   1.726   1.997   4.247
  995SOL    HW1 4331   1.799   1.980   4.180
  995SOL    HW2 4332   1.695   1.910   4.285
  996SOL     OW 4333   1.388   3.435   4.201
  996SOL    HW1 4334   1.455   3.447   4.127
  996SOL    HW2 4335   1.348   3.524   4.224
  997SOL     OW 4336   1.280   2.789   4.396
  997SOL    HW1 4337   1.340   2.708   4.398
  997SOL    HW2 4338   1.320   2.858   4.336
  998SOL     OW 4339   0.672   3.478   3.878
  998SOL    HW1 4340   0.681   3.488   3.779
  998SOL    HW2 4341   0.632   3.389   3.899
  999SOL     OW 4342   1.650   3.582   5.118
  999SOL    HW1 4343   1.703   3.592   5.034
  999SOL    HW2 4344   1.623   3.672   5.152
 1000SOL     OW 4345   1.841   2.037   4.687
 1000SOL    HW1 4346   1.880   1.952   4.651
 1000SOL    HW2 4347   1.743   2.039   4.668
 1001SOL     OW 4348   0.263   2.188   4.444
 1001SOL    HW1 4349   0.184   2.239   4.410
 1001SOL    HW2 4350   0.254   2.173   4.542
 1002SOL     OW 4351   0.822   2.864   5.096
 1002SOL    HW1 4352   0.862   2.863   5.004
 1002SOL    HW2 4353   0.832   2.956   5.136
 1003SOL     OW 4354   1.039   2.960   4.420
 1003SOL    HW1 4355   0.969   2.913   4.474
 1003SOL    HW2 4356   1.098   2.892   4.377
 1004SOL     OW 4357   1.014   2.098   4.695
 1004SOL    HW1 4358   1.006   2.062   4.602
 1004SOL    HW2 4359   1.012   2.022   4.760
 1005SOL     OW 4360   0.590   3.349   4.215
 1005SOL    HW1 4361   0.632   3.291   4.145
 1005SOL    HW2 4362   0.546   3.428   4.171
 1006SOL     OW 4363   0.075   2.207   3.757
 1006SOL    HW1 4364  -0.017   2.179   3.728
 1006SOL    HW2 4365   0.106   2.284   3.701
 1007SOL     OW 4366   0.072   2.028   4.042
 1007SOL    HW1 4367   0.055   2.111   3.988
 1007SOL    HW2 4368   0.162   1.991   4.020
 1008SOL     OW 4369   1.183   3.197   3.843
 1008SOL    HW1 4370   1.084   3.186   3.845
 1008SOL    HW2 4371   1.217   3.212   3.936
 1009SOL     OW 4372   1.493   3.629   4.683
 1009SOL    HW1 4373   1.526   3.693   4.614
 1009SOL    HW2 4374   1.559   3.623   4.758
 1010SOL     OW 4375   1.225   2.187   4.173
 1010SOL    HW1 4376   1.290   2.113   4.162
 1010SOL    HW2 4377   1.245   2.237   4.257
 1011SOL     OW 4378   0.594   2.607   4.376
 1011SOL    HW1 4379   0.644   2.692   4.357
 1011SOL    HW2 4380   0.506   2.609   4.328
 1012SOL     OW 4381   0.859   3.236   3.740
 1012SOL    HW1 4382   0.813   3.251   3.828
 1012SOL    HW2 4383   0.903   3.321   3.710
 1013SOL     OW 4384   0.661   3.652   4.677
 1013SOL    HW1 4385   0.615   3.740   4.664
 1013SOL    HW2 4386   0.760   3.664   4.670
 1014SOL     OW 4387   0.859   2.818   4.585
 1014SOL    HW1 4388   0.913   2.749   4.633
 1014SOL    HW2 4389   0.827   2.887   4.651
 1015SOL     OW 4390   0.079   3.102   4.377
 1015SOL    HW1 4391   0.078   3.055   4.465
 1015SOL    HW2 4392   0.161   3.074   4.326
 1016SOL     OW 4393   1.824   2.054   4.951
 1016SOL    HW1 4394   1.820   1.964   4.995
 1016SOL    HW2 4395   1.827   2.043   4.852
 1017SOL     OW 4396   0.428   2.286   4.244
 1017SOL    HW1 4397   0.458   2.214   4.182
 1017SOL    HW2 4398   0.389   2.246   4.327
 1018SOL     OW 4399   1.705   3.349   4.828
 1018SOL    HW1 4400   1.612   3.324   4.801
 1018SOL    HW2 4401   1.731   3.299   4.910
 1019SOL     OW 4402   0.812   3.448   4.411
 1019SOL    HW1 4403   0.844   3.458   4.317
 1019SOL    HW2 4404   0.733   3.386   4.413
 1020SOL     OW 4405   1.001   1.896   4.878
 1020SOL    HW1 4406   0.938   1.824   4.847
 1020SOL    HW2 4407   1.094   1.860   4.878
 1021SOL     OW 4408   0.770   3.192   4.025
 1021SOL    HW1 4409   0.724   3.105   4.042
 1021SOL    HW2 4410   0.861   3.189   4.066
 1022SOL     OW 4411   1.352   1.914   3.892
 1022SOL    HW1 4412   1.387   1.873   3.808
 1022SOL    HW2 4413   1.262   1.876   3.912
 1023SOL     OW 4414   1.300   2.315   4.415
 1023SOL    HW1 4415   1.241   2.395   4.419
 1023SOL    HW2 4416   1.315   2.280   4.508
 1024SOL     OW 4417   1.593   2.083   4.606
 1024SOL    HW1 4418   1.509   2.082   4.660
 1024SOL    HW2 4419   1.595   2.166   4.550
 1025SOL     OW 4420   0.039   2.939   4.024
 1025SOL    HW1 4421   0.138   2.928   4.015
 1025SOL    HW2 4422  -0.001   2.853   4.056
 1026SOL     OW 4423   0.875   3.508   4.061
 1026SOL    HW1 4424   0.798   3.473   4.007
 1026SOL    HW2 4425   0.843   3.579   4.123
 1027SOL     OW 4426   0.230   4.352   0.113
 1027SOL    HW1 4427   0.137   4.350   0.150
 1027SOL    HW2 4428   0.231   4.313   0.021
 1028SOL     OW 4429   0.569   4.999   1.165
 1028SOL    HW1 4430   0.476   4.992   1.128
 1028SOL    HW2 4431   0.580   5.088   1.209
 1029SOL     OW 4432   1.555   5.235   0.703
 1029SOL    HW1 4433   1.498   5.219   0.784
 1029SOL    HW2 4434   1.496   5.245   0.623
 1030SOL     OW 4435   1.135   4.427   0.717
 1030SOL    HW1 4436   1.192   4.505   0.692
 1030SOL    HW2 4437   1.075   4.453   0.793
 1031SOL     OW 4438   1.755   4.331   0.231
 1031SOL    HW1 4439   1.743   4.318   0.132
 1031SOL    HW2 4440   1.725   4.250   0.280
 1032SOL     OW 4441   0.768   4.868   1.023
 1032SOL    HW1 4442   0.690   4.885   1.083
 1032SOL    HW2 4443   0.802   4.955   0.987
 1033SOL     OW 4444   0.850   4.522   1.823
 1033SOL    HW1 4445   0.846   4.598   1.888
 1033SOL    HW2 4446   0.872   4.558   1.732
 1034SOL     OW 4447   0.685   4.736   0.665
 1034SOL    HW1 4448   0.754   4.720   0.735
 1034SOL    HW2 4449   0.612   4.793   0.703
 1035SOL     OW 4450   0.686   4.885   1.803
 1035SOL    HW1 4451   0.746   4.964   1.817
 1035SOL    HW2 4452   0.600   4.916   1.762
 1036SOL     OW 4453   0.335   5.159   1.061
 1036SOL    HW1 4454   0.257   5.128   1.008
 1036SOL    HW2 4455   0.393   5.217   1.004
 1037SOL     OW 4456   0.438   4.116   1.499
 1037SOL    HW1 4457   0.520   4.060   1.508
 1037SOL    HW2 4458   0.357   4.058   1.503
 1038SOL     OW 4459   1.594   3.838   1.480
 1038SOL    HW1 4460   1.576   3.905   1.408
 1038SOL    HW2 4461   1.591   3.884   1.569
 1039SOL     OW 4462   0.122   4.367   0.563
 1039SOL    HW1 4463   0.077   4.279   0.580
 1039SOL    HW2 4464   0.121   4.421   0.647
 1040SOL     OW 4465   1.689   4.646   0.612
 1040SOL    HW1 4466   1.784   4.617   0.620
 1040SOL    HW2 4467   1.681   4.711   0.537
 1041SOL     OW 4468   1.641   4.832   0.432
 1041SOL    HW1 4469   1.727   4.834   0.380
 1041SOL    HW2 4470   1.655   4.879   0.520
 1042SOL     OW 4471   0.113   4.461   1.597
 1042SOL    HW1 4472   0.201   4.448   1.642
 1042SOL    HW2 4473   0.100   4.558   1.575
 1043SOL     OW 4474   1.293   4.952   1.423
 1043SOL    HW1 4475   1.330   4.879   1.365
 1043SOL    HW2 4476   1.345   4.957   1.508
 1044SOL     OW 4477   0.809   3.728   0.502
 1044SOL    HW1 4478   0.849   3.819   0.493
 1044SOL    HW2 4479   0.709   3.736   0.508
 1045SOL     OW 4480   1.525   4.723   0.190
 1045SOL    HW1 4481   1.462   4.647   0.203
 1045SOL    HW2 4482   1.573   4.741   0.276
 1046SOL     OW 4483   0.317   3.975   1.801
 1046SOL    HW1 4484   0.388   4.046   1.807
 1046SOL    HW2 4485   0.229   4.014   1.829
 1047SOL     OW 4486   1.466   5.141   0.953
 1047SOL    HW1 4487   1.407   5.147   1.033
 1047SOL    HW2 4488   1.451   5.053   0.907
 1048SOL     OW 4489   0.598   4.453   0.270
 1048SOL    HW1 4490   0.622   4.522   0.202
 1048SOL    HW2 4491   0.520   4.486   0.324
 1049SOL     OW 4492   1.281   4.069   0.944
 1049SOL    HW1 4493   1.195   4.019   0.931
 1049SOL    HW2 4494   1.343   4.015   1.000
 1050SOL     OW 4495   0.807   4.329   1.465
 1050SOL    HW1 4496   0.760   4.326   1.554
 1050SOL    HW2 4497   0.756   4.274   1.399
 1051SOL     OW 4498   1.394   4.193   1.674
 1051SOL    HW1 4499   1.374   4.236   1.762
 1051SOL    HW2 4500   1.472   4.131   1.683
 1052SOL     OW 4501   0.973   4.614   1.572
 1052SOL    HW1 4502   1.019   4.530   1.543
 1052SOL    HW2 4503   0.917   4.648   1.497
 1053SOL     OW 4504   1.041   4.425   0.429
 1053SOL    HW1 4505   1.067   4.421   0.525
 1053SOL    HW2 4506   0.956   4.374   0.415
 1054SOL     OW 4507   0.865   4.072   0.195
 1054SOL    HW1 4508   0.924   4.135   0.146
 1054SOL    HW2 4509   0.884   3.978   0.166
 1055SOL     OW 4510   1.719   4.309   1.831
 1055SOL    HW1 4511   1.693   4.398   1.795
 1055SOL    HW2 4512   1.717   4.241   1.758
 1056SOL     OW 4513   1.362   4.868   0.545
 1056SOL    HW1 4514   1.445   4.839   0.497
 1056SOL    HW2 4515   1.313   4.935   0.489
 1057SOL     OW 4516   0.550   3.920   0.885
 1057SOL    HW1 4517   0.545   3.915   0.985
 1057SOL    HW2 4518   0.552   4.016   0.856
 1058SOL     OW 4519   1.795   4.790   0.873
 1058SOL    HW1 4520   1.733   4.775   0.797
 1058SOL    HW2 4521   1.743   4.801   0.958
 1059SOL     OW 4522   1.458   4.459   0.728
 1059SOL    HW1 4523   1.453   4.394   0.803
 1059SOL    HW2 4524   1.538   4.518   0.741
 1060SOL     OW 4525   0.202   4.009   1.498
 1060SOL    HW1 4526   0.122   4.069   1.485
 1060SOL    HW2 4527   0.192   3.960   1.584
 1061SOL     OW 4528   1.632   5.101   0.081
 1061SOL    HW1 4529   1.600   5.195   0.071
 1061SOL    HW2 4530   1.556   5.038   0.069
 1062SOL     OW 4531   0.382   4.424   0.480
 1062SOL    HW1 4532   0.427   4.334   0.477
 1062SOL    HW2 4533   0.288   4.413   0.513
 1063SOL     OW 4534   1.547   3.946   1.729
 1063SOL    HW1 4535   1.542   3.983   1.821
 1063SOL    HW2 4536   1.475   3.877   1.717
 1064SOL     OW 4537   0.781   3.988   1.749
 1064SOL    HW1 4538   0.848   3.927   1.792
 1064SOL    HW2 4539   0.708   4.007   1.814
 1065SOL     OW 4540   1.351   4.314   1.433
 1065SOL    HW1 4541   1.379   4.271   1.518
 1065SOL    HW2 4542   1.376   4.410   1.434
 1066SOL     OW 4543   0.803   5.126   0.924
 1066SOL    HW1 4544   0.893   5.140   0.882
 1066SOL    HW2 4545   0.732   5.128   0.853
 1067SOL     OW 4546   0.922   4.227   0.899
 1067SOL    HW1 4547   0.897   4.218   0.803
 1067SOL    HW2 4548   0.970   4.145   0.930
 1068SOL     OW 4549   0.539   3.788   0.512
 1068SOL    HW1 4550   0.458   3.789   0.570
 1068SOL    HW2 4551   0.542   3.871   0.457
 1069SOL     OW 4552   1.434   4.912   0.041
 1069SOL    HW1 4553   1.466   4.836   0.098
 1069SOL    HW2 4554   1.342   4.939   0.071
 1070SOL     OW 4555   0.297   3.759   0.171
 1070SOL    HW1 4556   0.346   3.843   0.150
 1070SOL    HW2 4557   0.359   3.694   0.216
 1071SOL     OW 4558   1.076   4.407   1.464
 1071SOL    HW1 4559   0.996   4.346   1.467
 1071SOL    HW2 4560   1.157   4.354   1.440
 1072SOL     OW 4561   1.227   5.294   0.793
 1072SOL    HW1 4562   1.248   5.368   0.728
 1072SOL    HW2 4563   1.295   5.294   0.866
 1073SOL     OW 4564   0.459   4.876   0.741
 1073SOL    HW1 4565   0.388   4.849   0.806
 1073SOL    HW2 4566   0.433   4.848   0.648
 1074SOL     OW 4567   1.032   4.273   0.016
 1074SOL    HW1 4568   0.991   4.355  -0.023
 1074SOL    HW2 4569   1.096   4.299   0.089
 1075SOL     OW 4570   0.078   4.280   1.386
 1075SOL    HW1 4571   0.170   4.279   1.345
 1075SOL    HW2 4572   0.072   4.354   1.453
 1076SOL     OW 4573   0.561   3.946   1.147
 1076SOL    HW1 4574   0.599   3.862   1.184
 1076SOL    HW2 4575   0.473   3.965   1.191
 1077SOL     OW 4576   1.429   4.897   0.867
 1077SOL    HW1 4577   1.374   4.813   0.860
 1077SOL    HW2 4578   1.455   4.926   0.775
 1078SOL     OW 4579   1.466   4.314   0.992
 1078SOL    HW1 4580   1.436   4.219   0.999
 1078SOL    HW2 4581   1.539   4.330   1.058
 1079SOL     OW 4582   1.857   4.557   0.377
 1079SOL    HW1 4583   1.899   4.493   0.441
 1079SOL    HW2 4584   1.819   4.506   0.299
 1080SOL     OW 4585   1.664   5.004   0.657
 1080SOL    HW1 4586   1.763   5.012   0.671
 1080SOL    HW2 4587   1.619   5.088   0.688
 1081SOL     OW 4588   1.390   4.299   0.078
 1081SOL    HW1 4589   1.336   4.278   0.159
 1081SOL    HW2 4590   1.481   4.258   0.087
 1082SOL     OW 4591   0.527   3.980   0.328
 1082SOL    HW1 4592   0.554   3.921   0.253
 1082SOL    HW2 4593   0.527   4.075   0.297
 1083SOL     OW 4594   1.754   4.947   1.588
 1083SOL    HW1 4595   1.845   4.908   1.575
 1083SOL    HW2 4596   1.762   5.043   1.612
 1084SOL     OW 4597   1.638   4.823   1.079
 1084SOL    HW1 4598   1.643   4.904   1.138
 1084SOL    HW2 4599   1.552   4.825   1.028
 1085SOL     OW 4600   0.980   4.840   1.719
 1085SOL    HW1 4601   0.881   4.846   1.729
 1085SOL    HW2 4602   1.003   4.760   1.663
 1086SOL     OW 4603   1.274   4.110   1.262
 1086SOL    HW1 4604   1.295   4.184   1.326
 1086SOL    HW2 4605   1.185   4.127   1.219
 1087SOL     OW 4606   0.566   4.261   0.865
 1087SOL    HW1 4607   0.578   4.327   0.791
 1087SOL    HW2 4608   0.612   4.295   0.948
 1088SOL     OW 4609   1.582   4.363   0.472
 1088SOL    HW1 4610   1.551   4.424   0.545
 1088SOL    HW2 4611   1.632   4.415   0.403
 1089SOL     OW 4612   0.402   4.475   1.598
 1089SOL    HW1 4613   0.470   4.530   1.551
 1089SOL    HW2 4614   0.442   4.387   1.625
 1090SOL     OW 4615   1.587   4.503   1.670
 1090SOL    HW1 4616   1.495   4.541   1.665
 1090SOL    HW2 4617   1.647   4.550   1.605
 1091SOL     OW 4618   1.013   3.829   1.770
 1091SOL    HW1 4619   1.019   3.914   1.718
 1091SOL    HW2 4620   1.045   3.753   1.713
 1092SOL     OW 4621   0.504   3.774   1.740
 1092SOL    HW1 4622   0.462   3.717   1.670
 1092SOL    HW2 4623   0.438   3.843   1.772
 1093SOL     OW 4624   0.573   4.594   1.029
 1093SOL    HW1 4625   0.617   4.683   1.020
 1093SOL    HW2 4626   0.510   4.594   1.106
 1094SOL     OW 4627   1.360   4.586   1.045
 1094SOL    HW1 4628   1.285   4.586   0.979
 1094SOL    HW2 4629   1.397   4.494   1.054
 1095SOL     OW 4630   1.209   4.249   0.275
 1095SOL    HW1 4631   1.222   4.165   0.329
 1095SOL    HW2 4632   1.180   4.323   0.335
 1096SOL     OW 4633   0.307   3.937   1.231
 1096SOL    HW1 4634   0.284   3.974   1.321
 1096SOL    HW2 4635   0.277   3.842   1.225
 1097SOL     OW 4636   0.037   5.034   1.282
 1097SOL    HW1 4637   0.090   4.985   1.350
 1097SOL    HW2 4638   0.059   5.132   1.287
 1098SOL     OW 4639   0.732   4.358   1.064
 1098SOL    HW1 4640   0.791   4.332   0.988
 1098SOL    HW2 4641   0.704   4.454   1.053
 1099SOL     OW 4642   1.728   4.659   1.854
 1099SOL    HW1 4643   1.682   4.652   1.765
 1099SOL    HW2 4644   1.666   4.703   1.920
 1100SOL     OW 4645   0.307   3.787   0.618
 1100SOL    HW1 4646   0.296   3.881   0.651
 1100SOL    HW2 4647   0.302   3.724   0.695
 1101SOL     OW 4648   1.023   4.490   0.966
 1101SOL    HW1 4649   1.038   4.511   1.062
 1101SOL    HW2 4650   0.993   4.395   0.957
 1102SOL     OW 4651   1.859   5.242   1.605
 1102SOL    HW1 4652   1.873   5.269   1.510
 1102SOL    HW2 4653   1.942   5.264   1.658
 1103SOL     OW 4654   0.350   4.622   1.804
 1103SOL    HW1 4655   0.426   4.666   1.852
 1103SOL    HW2 4656   0.385   4.575   1.722
 1104SOL     OW 4657   1.540   3.998   0.125
 1104SOL    HW1 4658   1.479   3.923   0.148
 1104SOL    HW2 4659   1.562   4.050   0.208
 1105SOL     OW 4660   1.303   4.562   0.042
 1105SOL    HW1 4661   1.337   4.469   0.057
 1105SOL    HW2 4662   1.321   4.589  -0.053
 1106SOL     OW 4663   1.138   4.104   1.678
 1106SOL    HW1 4664   1.093   4.167   1.742
 1106SOL    HW2 4665   1.231   4.135   1.661
 1107SOL     OW 4666   1.160   3.931   1.477
 1107SOL    HW1 4667   1.160   3.995   1.554
 1107SOL    HW2 4668   1.188   3.979   1.394
 1108SOL     OW 4669   0.008   5.050   0.200
 1108SOL    HW1 4670  -0.085   5.071   0.169
 1108SOL    HW2 4671   0.018   4.951   0.213
 1109SOL     OW 4672   1.002   4.520   1.238
 1109SOL    HW1 4673   1.043   4.488   1.324
 1109SOL    HW2 4674   0.906   4.493   1.235
 1110SOL     OW 4675   0.189   4.244   1.722
 1110SOL    HW1 4676   0.248   4.204   1.652
 1110SOL    HW2 4677   0.131   4.315   1.681
 1111SOL     OW 4678   1.369   4.674   1.660
 1111SOL    HW1 4679   1.408   4.763   1.680
 1111SOL    HW2 4680   1.379   4.654   1.563
 1112SOL     OW 4681   0.815   4.296   0.325
 1112SOL    HW1 4682   0.822   4.207   0.279
 1112SOL    HW2 4683   0.721   4.330   0.317
 1113SOL     OW 4684   1.657   4.328   1.206
 1113SOL    HW1 4685   1.619   4.259   1.268
 1113SOL    HW2 4686   1.739   4.292   1.162
 1114SOL     OW 4687   0.671   4.188   1.269
 1114SOL    HW1 4688   0.637   4.099   1.239
 1114SOL    HW2 4689   0.697   4.242   1.189
 1115SOL     OW 4690   0.473   4.224   0.191
 1115SOL    HW1 4691   0.534   4.304   0.195
 1115SOL    HW2 4692   0.378   4.255   0.198
 1116SOL     OW 4693   0.159   4.861   1.466
 1116SOL    HW1 4694   0.181   4.800   1.542
 1116SOL    HW2 4695   0.169   4.812   1.380
 1117SOL     OW 4696   1.347   4.783   1.234
 1117SOL    HW1 4697   1.371   4.720   1.160
 1117SOL    HW2 4698   1.257   4.823   1.216
 1118SOL     OW 4699   1.302   4.579   0.309
 1118SOL    HW1 4700   1.216   4.548   0.351
 1118SOL    HW2 4701   1.298   4.565   0.210
 1119SOL     OW 4702   0.903   3.810   0.133
 1119SOL    HW1 4703   0.954   3.811   0.047
 1119SOL    HW2 4704   0.959   3.768   0.204
 1120SOL     OW 4705   1.280   4.651   0.672
 1120SOL    HW1 4706   1.340   4.570   0.674
 1120SOL    HW2 4707   1.320   4.720   0.612
 1121SOL     OW 4708   0.830   4.997   1.422
 1121SOL    HW1 4709   0.825   5.030   1.517
 1121SOL    HW2 4710   0.744   5.016   1.376
 1122SOL     OW 4711   1.841   3.899   0.963
 1122SOL    HW1 4712   1.880   3.814   0.927
 1122SOL    HW2 4713   1.743   3.901   0.944
 1123SOL     OW 4714   0.822   4.726   1.372
 1123SOL    HW1 4715   0.862   4.725   1.280
 1123SOL    HW2 4716   0.832   4.818   1.412
 1124SOL     OW 4717   0.372   5.012   1.490
 1124SOL    HW1 4718   0.359   5.105   1.456
 1124SOL    HW2 4719   0.288   4.960   1.477
 1125SOL     OW 4720   1.614   5.016   1.289
 1125SOL    HW1 4721   1.674   5.019   1.369
 1125SOL    HW2 4722   1.539   5.080   1.302
 1126SOL     OW 4723   1.039   4.822   0.696
 1126SOL    HW1 4724   0.969   4.775   0.750
 1126SOL    HW2 4725   1.098   4.754   0.653
 1127SOL     OW 4726   1.709   4.109   1.381
 1127SOL    HW1 4727   1.782   4.178   1.385
 1127SOL    HW2 4728   1.737   4.034   1.322
 1128SOL     OW 4729   0.105   4.737   1.726
 1128SOL    HW1 4730   0.028   4.704   1.780
 1128SOL    HW2 4731   0.190   4.707   1.768
 1129SOL     OW 4732   0.672   3.927   1.489
 1129SOL    HW1 4733   0.762   3.911   1.449
 1129SOL    HW2 4734   0.680   3.932   1.588
 1130SOL     OW 4735   0.075   4.069   0.033
 1130SOL    HW1 4736  -0.017   4.041   0.004
 1130SOL    HW2 4737   0.106   4.146  -0.023
 1131SOL     OW 4738   1.440   4.580   1.398
 1131SOL    HW1 4739   1.383   4.632   1.335
 1131SOL    HW2 4740   1.536   4.592   1.374
 1132SOL     OW 4741   0.072   3.890   0.318
 1132SOL    HW1 4742   0.055   3.973   0.264
 1132SOL    HW2 4743   0.162   3.853   0.296
 1133SOL     OW 4744   0.613   4.566   1.431
 1133SOL    HW1 4745   0.669   4.647   1.414
 1133SOL    HW2 4746   0.672   4.486   1.434
 1134SOL     OW 4747   0.716   4.289   1.708
 1134SOL    HW1 4748   0.735   4.354   1.782
 1134SOL    HW2 4749   0.776   4.209   1.717
 1135SOL     OW 4750   1.450   4.944   1.633
 1135SOL    HW1 4751   1.441   4.934   1.732
 1135SOL    HW2 4752   1.546   4.937   1.607
 1136SOL     OW 4753   1.674   4.607   1.254
 1136SOL    HW1 4754   1.647   4.518   1.217
 1136SOL    HW2 4755   1.675   4.675   1.181
 1137SOL     OW 4756   1.225   4.049   0.449
 1137SOL    HW1 4757   1.290   3.975   0.438
 1137SOL    HW2 4758   1.245   4.099   0.533
 1138SOL     OW 4759   0.594   4.469   0.652
 1138SOL    HW1 4760   0.644   4.554   0.633
 1138SOL    HW2 4761   0.506   4.471   0.604
 1139SOL     OW 4762   1.777   4.066   1.642
 1139SOL    HW1 4763   1.760   4.097   1.548
 1139SOL    HW2 4764   1.693   4.029   1.680
 1140SOL     OW 4765   1.730   4.658   1.517
 1140SOL    HW1 4766   1.768   4.749   1.532
 1140SOL    HW2 4767   1.722   4.641   1.418
 1141SOL     OW 4768   0.859   4.680   0.861
 1141SOL    HW1 4769   0.913   4.611   0.909
 1141SOL    HW2 4770   0.827   4.749   0.927
 1142SOL     OW 4771   1.083   4.708   0.087
 1142SOL    HW1 4772   1.060   4.761   0.005
 1142SOL    HW2 4773   1.164   4.652   0.068
 1143SOL     OW 4774   0.079   4.964   0.653
 1143SOL    HW1 4775   0.078   4.917   0.741
 1143SOL    HW2 4776   0.161   4.936   0.602
 1144SOL     OW 4777   1.824   3.916   1.227
 1144SOL    HW1 4778   1.820   3.826   1.271
 1144SOL    HW2 4779   1.827   3.905   1.128
 1145SOL     OW 4780   0.428   4.148   0.520
 1145SOL    HW1 4781   0.458   4.076   0.458
 1145SOL    HW2 4782   0.389   4.108   0.603
 1146SOL     OW 4783   1.424   3.938   1.112
 1146SOL    HW1 4784   1.476   3.873   1.167
 1146SOL    HW2 4785   1.375   4.001   1.173
 1147SOL     OW 4786   1.352   3.776   0.168
 1147SOL    HW1 4787   1.387   3.735   0.084
 1147SOL    HW2 4788   1.262   3.738   0.188
 1148SOL     OW 4789   1.300   4.177   0.691
 1148SOL    HW1 4790   1.241   4.257   0.695
 1148SOL    HW2 4791   1.315   4.142   0.784
 1149SOL     OW 4792   1.593   3.945   0.882
 1149SOL    HW1 4793   1.509   3.944   0.936
 1149SOL    HW2 4794   1.595   4.028   0.826
 1150SOL     OW 4795   0.039   4.801   0.300
 1150SOL    HW1 4796   0.138   4.790   0.291
 1150SOL    HW2 4797  -0.001   4.715   0.332
 1151SOL     OW 4798   0.230   4.352   1.975
 1151SOL    HW1 4799   0.137   4.350   2.012
 1151SOL    HW2 4800   0.231   4.313   1.883
 1152SOL     OW 4801   0.225   3.999   2.858
 1152SOL    HW1 4802   0.260   3.982   2.950
 1152SOL    HW2 4803   0.137   3.954   2.846
 1153SOL     OW 4804   0.019   4.092   2.509
 1153SOL    HW1 4805  -0.063   4.135   2.548
 1153SOL    HW2 4806  -0.009   4.019   2.446
 1154SOL     OW 4807   0.569   4.999   3.027
 1154SOL    HW1 4808   0.476   4.992   2.990
 1154SOL    HW2 4809   0.580   5.088   3.071
 1155SOL     OW 4810   1.135   4.427   2.579
 1155SOL    HW1 4811   1.192   4.505   2.554
 1155SOL    HW2 4812   1.075   4.453   2.655
 1156SOL     OW 4813   1.755   4.331   2.093
 1156SOL    HW1 4814   1.743   4.318   1.994
 1156SOL    HW2 4815   1.725   4.250   2.142
 1157SOL     OW 4816   0.850   4.522   3.685
 1157SOL    HW1 4817   0.846   4.598   3.750
 1157SOL    HW2 4818   0.872   4.558   3.594
 1158SOL     OW 4819   0.685   4.736   2.527
 1158SOL    HW1 4820   0.754   4.720   2.597
 1158SOL    HW2 4821   0.612   4.793   2.565
 1159SOL     OW 4822   0.686   4.885   3.665
 1159SOL    HW1 4823   0.746   4.964   3.679
 1159SOL    HW2 4824   0.600   4.916   3.624
 1160SOL     OW 4825   0.335   5.159   2.923
 1160SOL    HW1 4826   0.257   5.128   2.870
 1160SOL    HW2 4827   0.393   5.217   2.866
 1161SOL     OW 4828   0.438   4.116   3.361
 1161SOL    HW1 4829   0.520   4.060   3.370
 1161SOL    HW2 4830   0.357   4.058   3.365
 1162SOL     OW 4831   1.603   4.171   2.599
 1162SOL    HW1 4832   1.529   4.217   2.549
 1162SOL    HW2 4833   1.654   4.239   2.652
 1163SOL     OW 4834   0.240   4.815   2.748
 1163SOL    HW1 4835   0.254   4.731   2.800
 1163SOL    HW2 4836   0.185   4.879   2.803
 1164SOL     OW 4837   0.606   4.688   1.985
 1164SOL    HW1 4838   0.613   4.772   1.931
 1164SOL    HW2 4839   0.652   4.701   2.073
 1165SOL     OW 4840   0.122   4.367   2.425
 1165SOL    HW1 4841   0.077   4.279   2.442
 1165SOL    HW2 4842   0.121   4.421   2.509
 1166SOL     OW 4843   1.689   4.646   2.474
 1166SOL    HW1 4844   1.784   4.617   2.482
 1166SOL    HW2 4845   1.681   4.711   2.399
 1167SOL     OW 4846   1.641   4.832   2.294
 1167SOL    HW1 4847   1.727   4.834   2.242
 1167SOL    HW2 4848   1.655   4.879   2.382
 1168SOL     OW 4849   0.113   4.461   3.459
 1168SOL    HW1 4850   0.201   4.448   3.504
 1168SOL    HW2 4851   0.100   4.558   3.437
 1169SOL     OW 4852   1.293   4.952   3.285
 1169SOL    HW1 4853   1.330   4.879   3.227
 1169SOL    HW2 4854   1.345   4.957   3.370
 1170SOL     OW 4855   0.809   3.728   2.364
 1170SOL    HW1 4856   0.849   3.819   2.355
 1170SOL    HW2 4857   0.709   3.736   2.370
 1171SOL     OW 4858   0.197   4.700   3.126
 1171SOL    HW1 4859   0.286   4.655   3.112
 1171SOL    HW2 4860   0.124   4.635   3.107
 1172SOL     OW 4861   1.525   4.723   2.052
 1172SOL    HW1 4862   1.462   4.647   2.065
 1172SOL    HW2 4863   1.573   4.741   2.138
 1173SOL     OW 4864   0.317   3.975   3.663
 1173SOL    HW1 4865   0.388   4.046   3.669
 1173SOL    HW2 4866   0.229   4.014   3.691
 1174SOL     OW 4867   1.466   5.141   2.815
 1174SOL    HW1 4868   1.407   5.147   2.895
 1174SOL    HW2 4869   1.451   5.053   2.769
 1175SOL     OW 4870   0.598   4.453   2.132
 1175SOL    HW1 4871   0.622   4.522   2.064
 1175SOL    HW2 4872   0.520   4.486   2.186
 1176SOL     OW 4873   1.281   4.069   2.806
 1176SOL    HW1 4874   1.195   4.019   2.793
 1176SOL    HW2 4875   1.343   4.015   2.862
 1177SOL     OW 4876   0.807   4.329   3.327
 1177SOL    HW1 4877   0.760   4.326   3.416
 1177SOL    HW2 4878   0.756   4.274   3.261
 1178SOL     OW 4879   1.394   4.193   3.536
 1178SOL    HW1 4880   1.374   4.236   3.624
 1178SOL    HW2 4881   1.472   4.131   3.545
 1179SOL     OW 4882   0.973   4.614   3.434
 1179SOL    HW1 4883   1.019   4.530   3.405
 1179SOL    HW2 4884   0.917   4.648   3.359
 1180SOL     OW 4885   0.991   4.134   3.104
 1180SOL    HW1 4886   0.914   4.168   3.158
 1180SOL    HW2 4887   0.957   4.083   3.025
 1181SOL     OW 4888   1.041   4.425   2.291
 1181SOL    HW1 4889   1.067   4.421   2.387
 1181SOL    HW2 4890   0.956   4.374   2.277
 1182SOL     OW 4891   0.076   4.535   2.651
 1182SOL    HW1 4892   0.175   4.523   2.660
 1182SOL    HW2 4893   0.052   4.630   2.672
 1183SOL     OW 4894   0.865   4.072   2.057
 1183SOL    HW1 4895   0.924   4.135   2.008
 1183SOL    HW2 4896   0.884   3.978   2.028
 1184SOL     OW 4897   1.719   4.309   3.693
 1184SOL    HW1 4898   1.693   4.398   3.657
 1184SOL    HW2 4899   1.717   4.241   3.620
 1185SOL     OW 4900   1.362   4.868   2.407
 1185SOL    HW1 4901   1.445   4.839   2.359
 1185SOL    HW2 4902   1.313   4.935   2.351
 1186SOL     OW 4903   0.550   3.920   2.747
 1186SOL    HW1 4904   0.545   3.915   2.847
 1186SOL    HW2 4905   0.552   4.016   2.718
 1187SOL     OW 4906   1.795   4.790   2.735
 1187SOL    HW1 4907   1.733   4.775   2.659
 1187SOL    HW2 4908   1.743   4.801   2.820
 1188SOL     OW 4909   0.321   4.667   2.104
 1188SOL    HW1 4910   0.403   4.706   2.062
 1188SOL    HW2 4911   0.294   4.585   2.055
 1189SOL     OW 4912   0.202   4.009   3.360
 1189SOL    HW1 4913   0.122   4.069   3.347
 1189SOL    HW2 4914   0.192   3.960   3.446
 1190SOL     OW 4915   1.632   5.101   1.943
 1190SOL    HW1 4916   1.600   5.195   1.933
 1190SOL    HW2 4917   1.556   5.038   1.931
 1191SOL     OW 4918   1.400   3.831   2.288
 1191SOL    HW1 4919   1.376   3.794   2.198
 1191SOL    HW2 4920   1.499   3.847   2.292
 1192SOL     OW 4921   0.382   4.424   2.342
 1192SOL    HW1 4922   0.427   4.334   2.339
 1192SOL    HW2 4923   0.288   4.413   2.375
 1193SOL     OW 4924   0.614   3.846   1.979
 1193SOL    HW1 4925   0.712   3.824   1.986
 1193SOL    HW2 4926   0.583   3.829   1.886
 1194SOL     OW 4927   0.781   3.988   3.611
 1194SOL    HW1 4928   0.848   3.927   3.654
 1194SOL    HW2 4929   0.708   4.007   3.676
 1195SOL     OW 4930   1.351   4.314   3.295
 1195SOL    HW1 4931   1.379   4.271   3.380
 1195SOL    HW2 4932   1.376   4.410   3.296
 1196SOL     OW 4933   0.922   4.227   2.761
 1196SOL    HW1 4934   0.897   4.218   2.665
 1196SOL    HW2 4935   0.970   4.145   2.792
 1197SOL     OW 4936   0.539   3.788   2.374
 1197SOL    HW1 4937   0.458   3.789   2.432
 1197SOL    HW2 4938   0.542   3.871   2.319
 1198SOL     OW 4939   1.434   4.912   1.903
 1198SOL    HW1 4940   1.466   4.836   1.960
 1198SOL    HW2 4941   1.342   4.939   1.933
 1199SOL     OW 4942   0.297   3.759   2.033
 1199SOL    HW1 4943   0.346   3.843   2.012
 1199SOL    HW2 4944   0.359   3.694   2.078
 1200SOL     OW 4945   0.935   3.960   2.342
 1200SOL    HW1 4946   0.887   4.001   2.264
 1200SOL    HW2 4947   1.034   3.958   2.323
 1201SOL     OW 4948   1.076   4.407   3.326
 1201SOL    HW1 4949   0.996   4.346   3.329
 1201SOL    HW2 4950   1.157   4.354   3.302
 1202SOL     OW 4951   1.227   5.294   2.655
 1202SOL    HW1 4952   1.248   5.368   2.590
 1202SOL    HW2 4953   1.295   5.294   2.728
 1203SOL     OW 4954   0.459   4.876   2.603
 1203SOL    HW1 4955   0.388   4.849   2.668
 1203SOL    HW2 4956   0.433   4.848   2.510
 1204SOL     OW 4957   1.032   4.273   1.878
 1204SOL    HW1 4958   0.991   4.355   1.839
 1204SOL    HW2 4959   1.096   4.299   1.951
 1205SOL     OW 4960   0.078   4.280   3.248
 1205SOL    HW1 4961   0.170   4.279   3.207
 1205SOL    HW2 4962   0.072   4.354   3.315
 1206SOL     OW 4963   0.561   3.946   3.009
 1206SOL    HW1 4964   0.599   3.862   3.046
 1206SOL    HW2 4965   0.473   3.965   3.053
 1207SOL     OW 4966   0.866   4.178   2.504
 1207SOL    HW1 4967   0.834   4.250   2.442
 1207SOL    HW2 4968   0.890   4.097   2.451
 1208SOL     OW 4969   1.017   3.763   2.615
 1208SOL    HW1 4970   0.945   3.768   2.546
 1208SOL    HW2 4971   0.993   3.694   2.684
 1209SOL     OW 4972   1.857   4.557   2.239
 1209SOL    HW1 4973   1.899   4.493   2.303
 1209SOL    HW2 4974   1.819   4.506   2.161
 1210SOL     OW 4975   1.664   5.004   2.519
 1210SOL    HW1 4976   1.763   5.012   2.533
 1210SOL    HW2 4977   1.619   5.088   2.550
 1211SOL     OW 4978   1.390   4.299   1.940
 1211SOL    HW1 4979   1.336   4.278   2.021
 1211SOL    HW2 4980   1.481   4.258   1.949
 1212SOL     OW 4981   0.527   3.980   2.190
 1212SOL    HW1 4982   0.554   3.921   2.115
 1212SOL    HW2 4983   0.527   4.075   2.159
 1213SOL     OW 4984   1.754   4.947   3.450
 1213SOL    HW1 4985   1.845   4.908   3.437
 1213SOL    HW2 4986   1.762   5.043   3.474
 1214SOL     OW 4987   1.638   4.823   2.941
 1214SOL    HW1 4988   1.643   4.904   3.000
 1214SOL    HW2 4989   1.552   4.825   2.890
 1215SOL     OW 4990   0.915   3.813   3.264
 1215SOL    HW1 4991   0.940   3.793   3.169
 1215SOL    HW2 4992   0.987   3.869   3.306
 1216SOL     OW 4993   0.980   4.840   3.581
 1216SOL    HW1 4994   0.881   4.846   3.591
 1216SOL    HW2 4995   1.003   4.760   3.525
 1217SOL     OW 4996   0.705   4.774   2.230
 1217SOL    HW1 4997   0.691   4.781   2.329
 1217SOL    HW2 4998   0.789   4.723   2.212
 1218SOL     OW 4999   0.410   4.537   3.113
 1218SOL    HW1 5000   0.496   4.549   3.163
 1218SOL    HW2 5001   0.368   4.450   3.140
 1219SOL     OW 5002   1.274   4.110   3.124
 1219SOL    HW1 5003   1.295   4.184   3.188
 1219SOL    HW2 5004   1.185   4.127   3.081
 1220SOL     OW 5005   0.367   4.824   2.363
 1220SOL    HW1 5006   0.360   4.907   2.307
 1220SOL    HW2 5007   0.371   4.744   2.303
 1221SOL     OW 5008   0.566   4.261   2.727
 1221SOL    HW1 5009   0.578   4.327   2.653
 1221SOL    HW2 5010   0.612   4.295   2.810
 1222SOL     OW 5011   1.582   4.363   2.334
 1222SOL    HW1 5012   1.551   4.424   2.407
 1222SOL    HW2 5013   1.632   4.415   2.265
 1223SOL     OW 5014   0.402   4.475   3.460
 1223SOL    HW1 5015   0.470   4.530   3.413
 1223SOL    HW2 5016   0.442   4.387   3.487
 1224SOL     OW 5017   1.587   4.503   3.532
 1224SOL    HW1 5018   1.495   4.541   3.527
 1224SOL    HW2 5019   1.647   4.550   3.467
 1225SOL     OW 5020   1.013   3.829   3.632
 1225SOL    HW1 5021   1.019   3.914   3.580
 1225SOL    HW2 5022   1.045   3.753   3.575
 1226SOL     OW 5023   0.504   3.774   3.602
 1226SOL    HW1 5024   0.462   3.717   3.532
 1226SOL    HW2 5025   0.438   3.843   3.634
 1227SOL     OW 5026   0.573   4.594   2.891
 1227SOL    HW1 5027   0.617   4.683   2.882
 1227SOL    HW2 5028   0.510   4.594   2.968
 1228SOL     OW 5029   1.209   4.249   2.137
 1228SOL    HW1 5030   1.222   4.165   2.191
 1228SOL    HW2 5031   1.180   4.323   2.197
 1229SOL     OW 5032   0.307   3.937   3.093
 1229SOL    HW1 5033   0.284   3.974   3.183
 1229SOL    HW2 5034   0.277   3.842   3.087
 1230SOL     OW 5035   0.037   5.034   3.144
 1230SOL    HW1 5036   0.090   4.985   3.212
 1230SOL    HW2 5037   0.059   5.132   3.149
 1231SOL     OW 5038   0.732   4.358   2.926
 1231SOL    HW1 5039   0.791   4.332   2.850
 1231SOL    HW2 5040   0.704   4.454   2.915
 1232SOL     OW 5041   1.728   4.659   3.716
 1232SOL    HW1 5042   1.682   4.652   3.627
 1232SOL    HW2 5043   1.666   4.703   3.782
 1233SOL     OW 5044   0.307   3.787   2.480
 1233SOL    HW1 5045   0.296   3.881   2.513
 1233SOL    HW2 5046   0.302   3.724   2.557
 1234SOL     OW 5047   1.622   4.091   2.236
 1234SOL    HW1 5048   1.624   4.015   2.300
 1234SOL    HW2 5049   1.574   4.168   2.276
 1235SOL     OW 5050   1.859   5.242   3.467
 1235SOL    HW1 5051   1.873   5.269   3.372
 1235SOL    HW2 5052   1.942   5.264   3.520
 1236SOL     OW 5053   0.350   4.622   3.666
 1236SOL    HW1 5054   0.426   4.666   3.714
 1236SOL    HW2 5055   0.385   4.575   3.584
 1237SOL     OW 5056   1.540   3.998   1.987
 1237SOL    HW1 5057   1.479   3.923   2.010
 1237SOL    HW2 5058   1.562   4.050   2.070
 1238SOL     OW 5059   1.303   4.562   1.904
 1238SOL    HW1 5060   1.337   4.469   1.919
 1238SOL    HW2 5061   1.321   4.589   1.809
 1239SOL     OW 5062   0.319   4.534   2.811
 1239SOL    HW1 5063   0.412   4.570   2.816
 1239SOL    HW2 5064   0.313   4.449   2.863
 1240SOL     OW 5065   0.339   4.233   2.868
 1240SOL    HW1 5066   0.287   4.150   2.851
 1240SOL    HW2 5067   0.416   4.238   2.804
 1241SOL     OW 5068   1.138   4.104   3.540
 1241SOL    HW1 5069   1.093   4.167   3.604
 1241SOL    HW2 5070   1.231   4.135   3.523
 1242SOL     OW 5071   1.160   3.931   3.339
 1242SOL    HW1 5072   1.160   3.995   3.416
 1242SOL    HW2 5073   1.188   3.979   3.256
 1243SOL     OW 5074   0.008   5.050   2.062
 1243SOL    HW1 5075  -0.085   5.071   2.031
 1243SOL    HW2 5076   0.018   4.951   2.075
 1244SOL     OW 5077   0.040   4.268   2.976
 1244SOL    HW1 5078   0.125   4.235   2.935
 1244SOL    HW2 5079   0.053   4.283   3.074
 1245SOL     OW 5080   0.189   4.244   3.584
 1245SOL    HW1 5081   0.248   4.204   3.514
 1245SOL    HW2 5082   0.131   4.315   3.543
 1246SOL     OW 5083   1.369   4.674   3.522
 1246SOL    HW1 5084   1.408   4.763   3.542
 1246SOL    HW2 5085   1.379   4.654   3.425
 1247SOL     OW 5086   0.815   4.296   2.187
 1247SOL    HW1 5087   0.822   4.207   2.141
 1247SOL    HW2 5088   0.721   4.330   2.179
 1248SOL     OW 5089   1.657   4.328   3.068
 1248SOL    HW1 5090   1.619   4.259   3.130
 1248SOL    HW2 5091   1.739   4.292   3.024
 1249SOL     OW 5092   0.671   4.188   3.131
 1249SOL    HW1 5093   0.637   4.099   3.101
 1249SOL    HW2 5094   0.697   4.242   3.051
 1250SOL     OW 5095   0.473   4.224   2.053
 1250SOL    HW1 5096   0.534   4.304   2.057
 1250SOL    HW2 5097   0.378   4.255   2.060
 1251SOL     OW 5098   0.159   4.861   3.328
 1251SOL    HW1 5099   0.181   4.800   3.404
 1251SOL    HW2 5100   0.169   4.812   3.242
 1252SOL     OW 5101   1.302   4.579   2.171
 1252SOL    HW1 5102   1.216   4.548   2.213
 1252SOL    HW2 5103   1.298   4.565   2.072
 1253SOL     OW 5104   0.083   4.982   2.884
 1253SOL    HW1 5105   0.078   4.981   2.984
 1253SOL    HW2 5106   0.000   4.941   2.846
 1254SOL     OW 5107   1.726   3.859   2.385
 1254SOL    HW1 5108   1.799   3.842   2.318
 1254SOL    HW2 5109   1.695   3.772   2.423
 1255SOL     OW 5110   1.280   4.651   2.534
 1255SOL    HW1 5111   1.340   4.570   2.536
 1255SOL    HW2 5112   1.320   4.720   2.474
 1256SOL     OW 5113   0.830   4.997   3.284
 1256SOL    HW1 5114   0.825   5.030   3.379
 1256SOL    HW2 5115   0.744   5.016   3.238
 1257SOL     OW 5116   1.841   3.899   2.825
 1257SOL    HW1 5117   1.880   3.814   2.789
 1257SOL    HW2 5118   1.743   3.901   2.806
 1258SOL     OW 5119   0.263   4.050   2.582
 1258SOL    HW1 5120   0.184   4.101   2.548
 1258SOL    HW2 5121   0.254   4.035   2.680
 1259SOL     OW 5122   1.194   5.336   1.893
 1259SOL    HW1 5123   1.200   5.243   1.930
 1259SOL    HW2 5124   1.135   5.336   1.813
 1260SOL     OW 5125   0.916   4.634   2.153
 1260SOL    HW1 5126   0.979   4.672   2.085
 1260SOL    HW2 5127   0.956   4.551   2.192
 1261SOL     OW 5128   0.372   5.012   3.352
 1261SOL    HW1 5129   0.359   5.105   3.318
 1261SOL    HW2 5130   0.288   4.960   3.339
 1262SOL     OW 5131   1.614   5.016   3.151
 1262SOL    HW1 5132   1.674   5.019   3.231
 1262SOL    HW2 5133   1.539   5.080   3.164
 1263SOL     OW 5134   1.039   4.822   2.558
 1263SOL    HW1 5135   0.969   4.775   2.612
 1263SOL    HW2 5136   1.098   4.754   2.515
 1264SOL     OW 5137   1.014   3.960   2.833
 1264SOL    HW1 5138   1.006   3.924   2.740
 1264SOL    HW2 5139   1.012   3.884   2.898
 1265SOL     OW 5140   1.709   4.109   3.243
 1265SOL    HW1 5141   1.782   4.178   3.247
 1265SOL    HW2 5142   1.737   4.034   3.184
 1266SOL     OW 5143   0.105   4.737   3.588
 1266SOL    HW1 5144   0.028   4.704   3.642
 1266SOL    HW2 5145   0.190   4.707   3.630
 1267SOL     OW 5146   0.672   3.927   3.351
 1267SOL    HW1 5147   0.762   3.911   3.311
 1267SOL    HW2 5148   0.680   3.932   3.450
 1268SOL     OW 5149   0.075   4.069   1.895
 1268SOL    HW1 5150  -0.017   4.041   1.866
 1268SOL    HW2 5151   0.106   4.146   1.839
 1269SOL     OW 5152   1.440   4.580   3.260
 1269SOL    HW1 5153   1.383   4.632   3.197
 1269SOL    HW2 5154   1.536   4.592   3.236
 1270SOL     OW 5155   0.072   3.890   2.180
 1270SOL    HW1 5156   0.055   3.973   2.126
 1270SOL    HW2 5157   0.162   3.853   2.158
 1271SOL     OW 5158   0.613   4.566   3.293
 1271SOL    HW1 5159   0.669   4.647   3.276
 1271SOL    HW2 5160   0.672   4.486   3.296
 1272SOL     OW 5161   0.716   4.289   3.570
 1272SOL    HW1 5162   0.735   4.354   3.644
 1272SOL    HW2 5163   0.776   4.209   3.579
 1273SOL     OW 5164   1.450   4.944   3.495
 1273SOL    HW1 5165   1.441   4.934   3.594
 1273SOL    HW2 5166   1.546   4.937   3.469
 1274SOL     OW 5167   1.674   4.607   3.116
 1274SOL    HW1 5168   1.647   4.518   3.079
 1274SOL    HW2 5169   1.675   4.675   3.043
 1275SOL     OW 5170   1.225   4.049   2.311
 1275SOL    HW1 5171   1.290   3.975   2.300
 1275SOL    HW2 5172   1.245   4.099   2.395
 1276SOL     OW 5173   0.594   4.469   2.514
 1276SOL    HW1 5174   0.644   4.554   2.495
 1276SOL    HW2 5175   0.506   4.471   2.466
 1277SOL     OW 5176   1.777   4.066   3.504
 1277SOL    HW1 5177   1.760   4.097   3.410
 1277SOL    HW2 5178   1.693   4.029   3.542
 1278SOL     OW 5179   1.730   4.658   3.379
 1278SOL    HW1 5180   1.768   4.749   3.394
 1278SOL    HW2 5181   1.722   4.641   3.280
 1279SOL     OW 5182   1.083   4.708   1.949
 1279SOL    HW1 5183   1.060   4.761   1.867
 1279SOL    HW2 5184   1.164   4.652   1.930
 1280SOL     OW 5185   0.079   4.964   2.515
 1280SOL    HW1 5186   0.078   4.917   2.603
 1280SOL    HW2 5187   0.161   4.936   2.464
 1281SOL     OW 5188   1.824   3.916   3.089
 1281SOL    HW1 5189   1.820   3.826   3.133
 1281SOL    HW2 5190   1.827   3.905   2.990
 1282SOL     OW 5191   0.428   4.148   2.382
 1282SOL    HW1 5192   0.458   4.076   2.320
 1282SOL    HW2 5193   0.389   4.108   2.465
 1283SOL     OW 5194   0.317   4.271   3.142
 1283SOL    HW1 5195   0.355   4.212   3.214
 1283SOL    HW2 5196   0.357   4.245   3.054
 1284SOL     OW 5197   1.424   3.938   2.974
 1284SOL    HW1 5198   1.476   3.873   3.029
 1284SOL    HW2 5199   1.375   4.001   3.035
 1285SOL     OW 5200   1.001   3.758   3.016
 1285SOL    HW1 5201   0.938   3.686   2.985
 1285SOL    HW2 5202   1.094   3.722   3.016
 1286SOL     OW 5203   0.770   5.054   2.163
 1286SOL    HW1 5204   0.724   4.967   2.180
 1286SOL    HW2 5205   0.861   5.051   2.204
 1287SOL     OW 5206   1.352   3.776   2.030
 1287SOL    HW1 5207   1.387   3.735   1.946
 1287SOL    HW2 5208   1.262   3.738   2.050
 1288SOL     OW 5209   1.300   4.177   2.553
 1288SOL    HW1 5210   1.241   4.257   2.557
 1288SOL    HW2 5211   1.315   4.142   2.646
 1289SOL     OW 5212   1.593   3.945   2.744
 1289SOL    HW1 5213   1.509   3.944   2.798
 1289SOL    HW2 5214   1.595   4.028   2.688
 1290SOL     OW 5215   0.039   4.801   2.162
 1290SOL    HW1 5216   0.138   4.790   2.153
 1290SOL    HW2 5217  -0.001   4.715   2.194
 1291SOL     OW 5218   0.230   4.352   3.837
 1291SOL    HW1 5219   0.137   4.350   3.874
 1291SOL    HW2 5220   0.231   4.313   3.745
 1292SOL     OW 5221   0.225   3.999   4.720
 1292SOL    HW1 5222   0.260   3.982   4.812
 1292SOL    HW2 5223   0.137   3.954   4.708
 1293SOL     OW 5224   0.019   4.092   4.371
 1293SOL    HW1 5225  -0.063   4.135   4.410
 1293SOL    HW2 5226  -0.009   4.019   4.308
 1294SOL     OW 5227   0.569   4.999   4.889
 1294SOL    HW1 5228   0.476   4.992   4.852
 1294SOL    HW2 5229   0.580   5.088   4.933
 1295SOL     OW 5230   1.555   5.235   4.427
 1295SOL    HW1 5231   1.498   5.219   4.508
 1295SOL    HW2 5232   1.496   5.245   4.347
 1296SOL     OW 5233   1.755   4.331   3.955
 1296SOL    HW1 5234   1.743   4.318   3.856
 1296SOL    HW2 5235   1.725   4.250   4.004
 1297SOL     OW 5236   0.685   4.736   4.389
 1297SOL    HW1 5237   0.754   4.720   4.459
 1297SOL    HW2 5238   0.612   4.793   4.427
 1298SOL     OW 5239   0.335   5.159   4.785
 1298SOL    HW1 5240   0.257   5.128   4.732
 1298SOL    HW2 5241   0.393   5.217   4.728
 1299SOL     OW 5242   1.603   4.171   4.461
 1299SOL    HW1 5243   1.529   4.217   4.411
 1299SOL    HW2 5244   1.654   4.239   4.514
 1300SOL     OW 5245   0.240   4.815   4.610
 1300SOL    HW1 5246   0.254   4.731   4.662
 1300SOL    HW2 5247   0.185   4.879   4.665
 1301SOL     OW 5248   0.606   4.688   3.847
 1301SOL    HW1 5249   0.613   4.772   3.793
 1301SOL    HW2 5250   0.652   4.701   3.935
 1302SOL     OW 5251   1.689   4.646   4.336
 1302SOL    HW1 5252   1.784   4.617   4.344
 1302SOL    HW2 5253   1.681   4.711   4.261
 1303SOL     OW 5254   1.641   4.832   4.156
 1303SOL    HW1 5255   1.727   4.834   4.104
 1303SOL    HW2 5256   1.655   4.879   4.244
 1304SOL     OW 5257   0.809   3.728   4.226
 1304SOL    HW1 5258   0.849   3.819   4.217
 1304SOL    HW2 5259   0.709   3.736   4.232
 1305SOL     OW 5260   0.197   4.700   4.988
 1305SOL    HW1 5261   0.286   4.655   4.974
 1305SOL    HW2 5262   0.124   4.635   4.969
 1306SOL     OW 5263   1.525   4.723   3.914
 1306SOL    HW1 5264   1.462   4.647   3.927
 1306SOL    HW2 5265   1.573   4.741   4.000
 1307SOL     OW 5266   1.466   5.141   4.677
 1307SOL    HW1 5267   1.407   5.147   4.757
 1307SOL    HW2 5268   1.451   5.053   4.631
 1308SOL     OW 5269   0.598   4.453   3.994
 1308SOL    HW1 5270   0.622   4.522   3.926
 1308SOL    HW2 5271   0.520   4.486   4.048
 1309SOL     OW 5272   1.281   4.069   4.668
 1309SOL    HW1 5273   1.195   4.019   4.655
 1309SOL    HW2 5274   1.343   4.015   4.724
 1310SOL     OW 5275   0.991   4.134   4.966
 1310SOL    HW1 5276   0.914   4.168   5.020
 1310SOL    HW2 5277   0.957   4.083   4.887
 1311SOL     OW 5278   0.865   4.072   3.919
 1311SOL    HW1 5279   0.924   4.135   3.870
 1311SOL    HW2 5280   0.884   3.978   3.890
 1312SOL     OW 5281   1.362   4.868   4.269
 1312SOL    HW1 5282   1.445   4.839   4.221
 1312SOL    HW2 5283   1.313   4.935   4.213
 1313SOL     OW 5284   0.550   3.920   4.609
 1313SOL    HW1 5285   0.545   3.915   4.709
 1313SOL    HW2 5286   0.552   4.016   4.580
 1314SOL     OW 5287   1.795   4.790   4.597
 1314SOL    HW1 5288   1.733   4.775   4.521
 1314SOL    HW2 5289   1.743   4.801   4.682
 1315SOL     OW 5290   0.321   4.667   3.966
 1315SOL    HW1 5291   0.403   4.706   3.924
 1315SOL    HW2 5292   0.294   4.585   3.917
 1316SOL     OW 5293   1.632   5.101   3.805
 1316SOL    HW1 5294   1.600   5.195   3.795
 1316SOL    HW2 5295   1.556   5.038   3.793
 1317SOL     OW 5296   1.400   3.831   4.150
 1317SOL    HW1 5297   1.376   3.794   4.060
 1317SOL    HW2 5298   1.499   3.847   4.154
 1318SOL     OW 5299   0.382   4.424   4.204
 1318SOL    HW1 5300   0.427   4.334   4.201
 1318SOL    HW2 5301   0.288   4.413   4.237
 1319SOL     OW 5302   0.614   3.846   3.841
 1319SOL    HW1 5303   0.712   3.824   3.848
 1319SOL    HW2 5304   0.583   3.829   3.748
 1320SOL     OW 5305   0.922   4.227   4.623
 1320SOL    HW1 5306   0.897   4.218   4.527
 1320SOL    HW2 5307   0.970   4.145   4.654
 1321SOL     OW 5308   0.539   3.788   4.236
 1321SOL    HW1 5309   0.458   3.789   4.294
 1321SOL    HW2 5310   0.542   3.871   4.181
 1322SOL     OW 5311   1.434   4.912   3.765
 1322SOL    HW1 5312   1.466   4.836   3.822
 1322SOL    HW2 5313   1.342   4.939   3.795
 1323SOL     OW 5314   0.297   3.759   3.895
 1323SOL    HW1 5315   0.346   3.843   3.874
 1323SOL    HW2 5316   0.359   3.694   3.940
 1324SOL     OW 5317   1.227   5.294   4.517
 1324SOL    HW1 5318   1.248   5.368   4.452
 1324SOL    HW2 5319   1.295   5.294   4.590
 1325SOL     OW 5320   0.459   4.876   4.465
 1325SOL    HW1 5321   0.388   4.849   4.530
 1325SOL    HW2 5322   0.433   4.848   4.372
 1326SOL     OW 5323   1.032   4.273   3.740
 1326SOL    HW1 5324   0.991   4.355   3.701
 1326SOL    HW2 5325   1.096   4.299   3.813
 1327SOL     OW 5326   0.561   3.946   4.871
 1327SOL    HW1 5327   0.599   3.862   4.908
 1327SOL    HW2 5328   0.473   3.965   4.915
 1328SOL     OW 5329   1.017   3.763   4.477
 1328SOL    HW1 5330   0.945   3.768   4.408
 1328SOL    HW2 5331   0.993   3.694   4.546
 1329SOL     OW 5332   1.466   4.314   4.716
 1329SOL    HW1 5333   1.436   4.219   4.723
 1329SOL    HW2 5334   1.539   4.330   4.782
 1330SOL     OW 5335   1.857   4.557   4.101
 1330SOL    HW1 5336   1.899   4.493   4.165
 1330SOL    HW2 5337   1.819   4.506   4.023
 1331SOL     OW 5338   1.664   5.004   4.381
 1331SOL    HW1 5339   1.763   5.012   4.395
 1331SOL    HW2 5340   1.619   5.088   4.412
 1332SOL     OW 5341   1.390   4.299   3.802
 1332SOL    HW1 5342   1.336   4.278   3.883
 1332SOL    HW2 5343   1.481   4.258   3.811
 1333SOL     OW 5344   0.527   3.980   4.052
 1333SOL    HW1 5345   0.554   3.921   3.977
 1333SOL    HW2 5346   0.527   4.075   4.021
 1334SOL     OW 5347   1.638   4.823   4.803
 1334SOL    HW1 5348   1.643   4.904   4.862
 1334SOL    HW2 5349   1.552   4.825   4.752
 1335SOL     OW 5350   0.705   4.774   4.092
 1335SOL    HW1 5351   0.691   4.781   4.191
 1335SOL    HW2 5352   0.789   4.723   4.074
 1336SOL     OW 5353   1.274   4.110   4.986
 1336SOL    HW1 5354   1.295   4.184   5.050
 1336SOL    HW2 5355   1.185   4.127   4.943
 1337SOL     OW 5356   0.566   4.261   4.589
 1337SOL    HW1 5357   0.578   4.327   4.515
 1337SOL    HW2 5358   0.612   4.295   4.672
 1338SOL     OW 5359   1.582   4.363   4.196
 1338SOL    HW1 5360   1.551   4.424   4.269
 1338SOL    HW2 5361   1.632   4.415   4.127
 1339SOL     OW 5362   0.573   4.594   4.753
 1339SOL    HW1 5363   0.617   4.683   4.744
 1339SOL    HW2 5364   0.510   4.594   4.830
 1340SOL     OW 5365   1.360   4.586   4.769
 1340SOL    HW1 5366   1.285   4.586   4.703
 1340SOL    HW2 5367   1.397   4.494   4.778
 1341SOL     OW 5368   0.307   3.937   4.955
 1341SOL    HW1 5369   0.284   3.974   5.045
 1341SOL    HW2 5370   0.277   3.842   4.949
 1342SOL     OW 5371   0.037   5.034   5.006
 1342SOL    HW1 5372   0.090   4.985   5.074
 1342SOL    HW2 5373   0.059   5.132   5.011
 1343SOL     OW 5374   0.732   4.358   4.788
 1343SOL    HW1 5375   0.791   4.332   4.712
 1343SOL    HW2 5376   0.704   4.454   4.777
 1344SOL     OW 5377   0.307   3.787   4.342
 1344SOL    HW1 5378   0.296   3.881   4.375
 1344SOL    HW2 5379   0.302   3.724   4.419
 1345SOL     OW 5380   1.622   4.091   4.098
 1345SOL    HW1 5381   1.624   4.015   4.162
 1345SOL    HW2 5382   1.574   4.168   4.138
 1346SOL     OW 5383   1.023   4.490   4.690
 1346SOL    HW1 5384   1.038   4.511   4.786
 1346SOL    HW2 5385   0.993   4.395   4.681
 1347SOL     OW 5386   1.303   4.562   3.766
 1347SOL    HW1 5387   1.337   4.469   3.781
 1347SOL    HW2 5388   1.321   4.589   3.671
 1348SOL     OW 5389   0.319   4.534   4.673
 1348SOL    HW1 5390   0.412   4.570   4.678
 1348SOL    HW2 5391   0.313   4.449   4.725
 1349SOL     OW 5392   0.339   4.233   4.730
 1349SOL    HW1 5393   0.287   4.150   4.713
 1349SOL    HW2 5394   0.416   4.238   4.666
 1350SOL     OW 5395   1.160   3.931   5.201
 1350SOL    HW1 5396   1.160   3.995   5.278
 1350SOL    HW2 5397   1.188   3.979   5.118
 1351SOL     OW 5398   0.008   5.050   3.924
 1351SOL    HW1 5399  -0.085   5.071   3.893
 1351SOL    HW2 5400   0.018   4.951   3.937
 1352SOL     OW 5401   1.002   4.520   4.962
 1352SOL    HW1 5402   1.043   4.488   5.048
 1352SOL    HW2 5403   0.906   4.493   4.959
 1353SOL     OW 5404   0.040   4.268   4.838
 1353SOL    HW1 5405   0.125   4.235   4.797
 1353SOL    HW2 5406   0.053   4.283   4.936
 1354SOL     OW 5407   0.815   4.296   4.049
 1354SOL    HW1 5408   0.822   4.207   4.003
 1354SOL    HW2 5409   0.721   4.330   4.041
 1355SOL     OW 5410   1.657   4.328   4.930
 1355SOL    HW1 5411   1.619   4.259   4.992
 1355SOL    HW2 5412   1.739   4.292   4.886
 1356SOL     OW 5413   0.671   4.188   4.993
 1356SOL    HW1 5414   0.637   4.099   4.963
 1356SOL    HW2 5415   0.697   4.242   4.913
 1357SOL     OW 5416   0.473   4.224   3.915
 1357SOL    HW1 5417   0.534   4.304   3.919
 1357SOL    HW2 5418   0.378   4.255   3.922
 1358SOL     OW 5419   1.347   4.783   4.958
 1358SOL    HW1 5420   1.371   4.720   4.884
 1358SOL    HW2 5421   1.257   4.823   4.940
 1359SOL     OW 5422   1.302   4.579   4.033
 1359SOL    HW1 5423   1.216   4.548   4.075
 1359SOL    HW2 5424   1.298   4.565   3.934
 1360SOL     OW 5425   1.726   3.859   4.247
 1360SOL    HW1 5426   1.799   3.842   4.180
 1360SOL    HW2 5427   1.695   3.772   4.285
 1361SOL     OW 5428   1.841   3.899   4.687
 1361SOL    HW1 5429   1.880   3.814   4.651
 1361SOL    HW2 5430   1.743   3.901   4.668
 1362SOL     OW 5431   0.263   4.050   4.444
 1362SOL    HW1 5432   0.184   4.101   4.410
 1362SOL    HW2 5433   0.254   4.035   4.542
 1363SOL     OW 5434   1.194   5.336   3.755
 1363SOL    HW1 5435   1.200   5.243   3.792
 1363SOL    HW2 5436   1.135   5.336   3.675
 1364SOL     OW 5437   1.014   3.960   4.695
 1364SOL    HW1 5438   1.006   3.924   4.602
 1364SOL    HW2 5439   1.012   3.884   4.760
 1365SOL     OW 5440   0.075   4.069   3.757
 1365SOL    HW1 5441  -0.017   4.041   3.728
 1365SOL    HW2 5442   0.106   4.146   3.701
 1366SOL     OW 5443   0.072   3.890   4.042
 1366SOL    HW1 5444   0.055   3.973   3.988
 1366SOL    HW2 5445   0.162   3.853   4.020
 1367SOL     OW 5446   1.450   4.944   5.357
 1367SOL    HW1 5447   1.441   4.934   5.456
 1367SOL    HW2 5448   1.546   4.937   5.331
 1368SOL     OW 5449   1.674   4.607   4.978
 1368SOL    HW1 5450   1.647   4.518   4.941
 1368SOL    HW2 5451   1.675   4.675   4.905
 1369SOL     OW 5452   0.594   4.469   4.376
 1369SOL    HW1 5453   0.644   4.554   4.357
 1369SOL    HW2 5454   0.506   4.471   4.328
 1370SOL     OW 5455   1.730   4.658   5.241
 1370SOL    HW1 5456   1.768   4.749   5.256
 1370SOL    HW2 5457   1.722   4.641   5.142
 1371SOL     OW 5458   0.859   4.680   4.585
 1371SOL    HW1 5459   0.913   4.611   4.633
 1371SOL    HW2 5460   0.827   4.749   4.651
 1372SOL     OW 5461   1.083   4.708   3.811
 1372SOL    HW1 5462   1.060   4.761   3.729
 1372SOL    HW2 5463   1.164   4.652   3.792
 1373SOL     OW 5464   0.079   4.964   4.377
 1373SOL    HW1 5465   0.078   4.917   4.465
 1373SOL    HW2 5466   0.161   4.936   4.326
 1374SOL     OW 5467   1.824   3.916   4.951
 1374SOL    HW1 5468   1.820   3.826   4.995
 1374SOL    HW2 5469   1.827   3.905   4.852
 1375SOL     OW 5470   0.428   4.148   4.244
 1375SOL    HW1 5471   0.458   4.076   4.182
 1375SOL    HW2 5472   0.389   4.108   4.327
 1376SOL     OW 5473   1.424   3.938   4.836
 1376SOL    HW1 5474   1.476   3.873   4.891
 1376SOL    HW2 5475   1.375   4.001   4.897
 1377SOL     OW 5476   1.001   3.758   4.878
 1377SOL    HW1 5477   0.938   3.686   4.847
 1377SOL    HW2 5478   1.094   3.722   4.878
 1378SOL     OW 5479   1.593   3.945   4.606
 1378SOL    HW1 5480   1.509   3.944   4.660
 1378SOL    HW2 5481   1.595   4.028   4.550
 1379SOL     OW 5482   2.092   0.628   0.113
 1379SOL    HW1 5483   1.999   0.626   0.150
 1379SOL    HW2 5484   2.093   0.589   0.021
 1380SOL     OW 5485   2.087   0.275   0.996
 1380SOL    HW1 5486   2.122   0.258   1.088
 1380SOL    HW2 5487   1.999   0.230   0.984
 1381SOL     OW 5488   1.881   0.368   0.647
 1381SOL    HW1 5489   1.799   0.411   0.686
 1381SOL    HW2 5490   1.853   0.295   0.584
 1382SOL     OW 5491   2.431   1.275   1.165
 1382SOL    HW1 5492   2.338   1.268   1.128
 1382SOL    HW2 5493   2.442   1.364   1.209
 1383SOL     OW 5494   3.417   1.511   0.703
 1383SOL    HW1 5495   3.360   1.495   0.784
 1383SOL    HW2 5496   3.358   1.521   0.623
 1384SOL     OW 5497   2.997   0.703   0.717
 1384SOL    HW1 5498   3.054   0.781   0.692
 1384SOL    HW2 5499   2.937   0.729   0.793
 1385SOL     OW 5500   3.617   0.607   0.231
 1385SOL    HW1 5501   3.605   0.594   0.132
 1385SOL    HW2 5502   3.587   0.526   0.280
 1386SOL     OW 5503   2.630   1.144   1.023
 1386SOL    HW1 5504   2.552   1.161   1.083
 1386SOL    HW2 5505   2.664   1.231   0.987
 1387SOL     OW 5506   2.712   0.798   1.823
 1387SOL    HW1 5507   2.708   0.874   1.888
 1387SOL    HW2 5508   2.734   0.834   1.732
 1388SOL     OW 5509   2.547   1.012   0.665
 1388SOL    HW1 5510   2.616   0.996   0.735
 1388SOL    HW2 5511   2.474   1.069   0.703
 1389SOL     OW 5512   2.548   1.161   1.803
 1389SOL    HW1 5513   2.608   1.240   1.817
 1389SOL    HW2 5514   2.462   1.192   1.762
 1390SOL     OW 5515   3.322   1.505   1.339
 1390SOL    HW1 5516   3.346   1.599   1.365
 1390SOL    HW2 5517   3.306   1.451   1.421
 1391SOL     OW 5518   2.300   0.392   1.499
 1391SOL    HW1 5519   2.382   0.336   1.508
 1391SOL    HW2 5520   2.219   0.334   1.503
 1392SOL     OW 5521   2.989   1.341   1.690
 1392SOL    HW1 5522   3.036   1.341   1.778
 1392SOL    HW2 5523   2.941   1.254   1.679
 1393SOL     OW 5524   2.092   1.434   0.538
 1393SOL    HW1 5525   2.066   1.530   0.538
 1393SOL    HW2 5526   2.021   1.380   0.583
 1394SOL     OW 5527   2.102   1.091   0.886
 1394SOL    HW1 5528   2.116   1.007   0.938
 1394SOL    HW2 5529   2.047   1.155   0.941
 1395SOL     OW 5530   2.482   1.786   1.439
 1395SOL    HW1 5531   2.390   1.769   1.474
 1395SOL    HW2 5532   2.510   1.878   1.465
 1396SOL     OW 5533   2.468   0.964   0.123
 1396SOL    HW1 5534   2.475   1.048   0.069
 1396SOL    HW2 5535   2.514   0.977   0.211
 1397SOL     OW 5536   3.456   0.114   1.480
 1397SOL    HW1 5537   3.438   0.181   1.408
 1397SOL    HW2 5538   3.453   0.160   1.569
 1398SOL     OW 5539   1.984   0.643   0.563
 1398SOL    HW1 5540   1.939   0.555   0.580
 1398SOL    HW2 5541   1.983   0.697   0.647
 1399SOL     OW 5542   3.704   1.767   0.359
 1399SOL    HW1 5543   3.758   1.738   0.439
 1399SOL    HW2 5544   3.734   1.857   0.330
 1400SOL     OW 5545   1.975   0.737   1.597
 1400SOL    HW1 5546   2.063   0.724   1.642
 1400SOL    HW2 5547   1.962   0.834   1.575
 1401SOL     OW 5548   2.475   1.365   0.726
 1401SOL    HW1 5549   2.426   1.278   0.735
 1401SOL    HW2 5550   2.452   1.408   0.639
 1402SOL     OW 5551   3.155   1.228   1.423
 1402SOL    HW1 5552   3.192   1.155   1.365
 1402SOL    HW2 5553   3.207   1.233   1.508
 1403SOL     OW 5554   2.671   0.004   0.502
 1403SOL    HW1 5555   2.711   0.095   0.493
 1403SOL    HW2 5556   2.571   0.012   0.508
 1404SOL     OW 5557   2.059   0.976   1.264
 1404SOL    HW1 5558   2.148   0.931   1.250
 1404SOL    HW2 5559   1.986   0.911   1.245
 1405SOL     OW 5560   3.049   1.792   1.616
 1405SOL    HW1 5561   3.073   1.852   1.540
 1405SOL    HW2 5562   3.056   1.697   1.586
 1406SOL     OW 5563   2.179   0.251   1.801
 1406SOL    HW1 5564   2.250   0.322   1.807
 1406SOL    HW2 5565   2.091   0.290   1.829
 1407SOL     OW 5566   3.328   1.417   0.953
 1407SOL    HW1 5567   3.269   1.423   1.033
 1407SOL    HW2 5568   3.313   1.329   0.907
 1408SOL     OW 5569   3.529   1.714   0.572
 1408SOL    HW1 5570   3.488   1.691   0.484
 1408SOL    HW2 5571   3.511   1.640   0.637
 1409SOL     OW 5572   2.460   0.729   0.270
 1409SOL    HW1 5573   2.484   0.798   0.202
 1409SOL    HW2 5574   2.382   0.762   0.324
 1410SOL     OW 5575   3.438   1.662   0.307
 1410SOL    HW1 5576   3.527   1.708   0.310
 1410SOL    HW2 5577   3.417   1.638   0.212
 1411SOL     OW 5578   3.256   0.469   1.674
 1411SOL    HW1 5579   3.236   0.512   1.762
 1411SOL    HW2 5580   3.334   0.407   1.683
 1412SOL     OW 5581   2.835   0.890   1.572
 1412SOL    HW1 5582   2.881   0.806   1.543
 1412SOL    HW2 5583   2.779   0.924   1.497
 1413SOL     OW 5584   2.903   0.701   0.429
 1413SOL    HW1 5585   2.929   0.697   0.525
 1413SOL    HW2 5586   2.818   0.650   0.415
 1414SOL     OW 5587   1.938   0.811   0.789
 1414SOL    HW1 5588   2.037   0.799   0.798
 1414SOL    HW2 5589   1.914   0.906   0.810
 1415SOL     OW 5590   1.992   1.821   1.571
 1415SOL    HW1 5591   1.982   1.806   1.670
 1415SOL    HW2 5592   1.906   1.857   1.535
 1416SOL     OW 5593   2.727   0.348   0.195
 1416SOL    HW1 5594   2.786   0.411   0.146
 1416SOL    HW2 5595   2.746   0.254   0.166
 1417SOL     OW 5596   3.581   0.585   1.831
 1417SOL    HW1 5597   3.555   0.674   1.795
 1417SOL    HW2 5598   3.579   0.517   1.758
 1418SOL     OW 5599   3.224   1.144   0.545
 1418SOL    HW1 5600   3.307   1.115   0.497
 1418SOL    HW2 5601   3.175   1.211   0.489
 1419SOL     OW 5602   2.412   0.196   0.885
 1419SOL    HW1 5603   2.407   0.191   0.985
 1419SOL    HW2 5604   2.414   0.292   0.856
 1420SOL     OW 5605   2.870   1.456   0.477
 1420SOL    HW1 5606   2.824   1.528   0.425
 1420SOL    HW2 5607   2.866   1.476   0.575
 1421SOL     OW 5608   3.089   1.550   1.506
 1421SOL    HW1 5609   3.095   1.473   1.570
 1421SOL    HW2 5610   3.037   1.524   1.426
 1422SOL     OW 5611   2.183   0.943   0.242
 1422SOL    HW1 5612   2.265   0.982   0.200
 1422SOL    HW2 5613   2.156   0.861   0.193
 1423SOL     OW 5614   2.323   1.266   1.727
 1423SOL    HW1 5615   2.273   1.267   1.641
 1423SOL    HW2 5616   2.260   1.248   1.803
 1424SOL     OW 5617   2.973   1.776   0.237
 1424SOL    HW1 5618   2.913   1.714   0.287
 1424SOL    HW2 5619   3.004   1.732   0.152
 1425SOL     OW 5620   2.064   0.285   1.498
 1425SOL    HW1 5621   1.984   0.345   1.485
 1425SOL    HW2 5622   2.054   0.236   1.584
 1426SOL     OW 5623   2.326   1.743   0.323
 1426SOL    HW1 5624   2.359   1.782   0.409
 1426SOL    HW2 5625   2.402   1.736   0.258
 1427SOL     OW 5626   3.262   0.107   0.426
 1427SOL    HW1 5627   3.238   0.070   0.336
 1427SOL    HW2 5628   3.361   0.123   0.430
 1428SOL     OW 5629   2.111   1.785   1.241
 1428SOL    HW1 5630   2.168   1.720   1.291
 1428SOL    HW2 5631   2.095   1.752   1.148
 1429SOL     OW 5632   2.802   1.698   0.904
 1429SOL    HW1 5633   2.882   1.641   0.925
 1429SOL    HW2 5634   2.753   1.658   0.827
 1430SOL     OW 5635   2.244   0.700   0.480
 1430SOL    HW1 5636   2.289   0.610   0.477
 1430SOL    HW2 5637   2.150   0.689   0.513
 1431SOL     OW 5638   3.409   0.222   1.729
 1431SOL    HW1 5639   3.404   0.259   1.821
 1431SOL    HW2 5640   3.337   0.153   1.717
 1432SOL     OW 5641   2.476   0.122   0.117
 1432SOL    HW1 5642   2.574   0.100   0.124
 1432SOL    HW2 5643   2.445   0.105   0.024
 1433SOL     OW 5644   2.643   0.264   1.749
 1433SOL    HW1 5645   2.710   0.203   1.792
 1433SOL    HW2 5646   2.570   0.283   1.814
 1434SOL     OW 5647   2.750   1.514   1.195
 1434SOL    HW1 5648   2.727   1.489   1.101
 1434SOL    HW2 5649   2.811   1.445   1.234
 1435SOL     OW 5650   3.213   0.590   1.433
 1435SOL    HW1 5651   3.241   0.547   1.518
 1435SOL    HW2 5652   3.238   0.686   1.434
 1436SOL     OW 5653   2.665   1.402   0.924
 1436SOL    HW1 5654   2.755   1.416   0.882
 1436SOL    HW2 5655   2.594   1.404   0.853
 1437SOL     OW 5656   2.401   0.064   0.512
 1437SOL    HW1 5657   2.320   0.065   0.570
 1437SOL    HW2 5658   2.404   0.147   0.457
 1438SOL     OW 5659   3.296   1.188   0.041
 1438SOL    HW1 5660   3.328   1.112   0.098
 1438SOL    HW2 5661   3.204   1.215   0.071
 1439SOL     OW 5662   2.159   0.035   0.171
 1439SOL    HW1 5663   2.208   0.119   0.150
 1439SOL    HW2 5664   2.221  -0.030   0.216
 1440SOL     OW 5665   2.797   0.236   0.480
 1440SOL    HW1 5666   2.749   0.277   0.402
 1440SOL    HW2 5667   2.896   0.234   0.461
 1441SOL     OW 5668   2.938   0.683   1.464
 1441SOL    HW1 5669   2.858   0.622   1.467
 1441SOL    HW2 5670   3.019   0.630   1.440
 1442SOL     OW 5671   3.089   1.570   0.793
 1442SOL    HW1 5672   3.110   1.644   0.728
 1442SOL    HW2 5673   3.157   1.570   0.866
 1443SOL     OW 5674   2.321   1.152   0.741
 1443SOL    HW1 5675   2.250   1.125   0.806
 1443SOL    HW2 5676   2.295   1.124   0.648
 1444SOL     OW 5677   3.133   1.797   0.591
 1444SOL    HW1 5678   3.177   1.861   0.527
 1444SOL    HW2 5679   3.083   1.849   0.661
 1445SOL     OW 5680   2.894   0.549   0.016
 1445SOL    HW1 5681   2.853   0.631  -0.023
 1445SOL    HW2 5682   2.958   0.575   0.089
 1446SOL     OW 5683   1.940   0.556   1.386
 1446SOL    HW1 5684   2.032   0.555   1.345
 1446SOL    HW2 5685   1.934   0.630   1.453
 1447SOL     OW 5686   2.423   0.222   1.147
 1447SOL    HW1 5687   2.461   0.138   1.184
 1447SOL    HW2 5688   2.335   0.241   1.191
 1448SOL     OW 5689   2.728   0.454   0.642
 1448SOL    HW1 5690   2.696   0.526   0.580
 1448SOL    HW2 5691   2.752   0.373   0.589
 1449SOL     OW 5692   2.879   0.039   0.753
 1449SOL    HW1 5693   2.807   0.044   0.684
 1449SOL    HW2 5694   2.855  -0.030   0.822
 1450SOL     OW 5695   3.291   1.173   0.867
 1450SOL    HW1 5696   3.236   1.089   0.860
 1450SOL    HW2 5697   3.317   1.202   0.775
 1451SOL     OW 5698   2.350   1.385   0.174
 1451SOL    HW1 5699   2.263   1.370   0.221
 1451SOL    HW2 5700   2.333   1.411   0.079
 1452SOL     OW 5701   3.526   1.280   0.657
 1452SOL    HW1 5702   3.625   1.288   0.671
 1452SOL    HW2 5703   3.481   1.364   0.688
 1453SOL     OW 5704   3.252   0.575   0.078
 1453SOL    HW1 5705   3.198   0.554   0.159
 1453SOL    HW2 5706   3.343   0.534   0.087
 1454SOL     OW 5707   2.389   0.256   0.328
 1454SOL    HW1 5708   2.416   0.197   0.253
 1454SOL    HW2 5709   2.389   0.351   0.297
 1455SOL     OW 5710   3.616   1.223   1.588
 1455SOL    HW1 5711   3.707   1.184   1.575
 1455SOL    HW2 5712   3.624   1.319   1.612
 1456SOL     OW 5713   2.926   1.347   1.340
 1456SOL    HW1 5714   2.846   1.324   1.395
 1456SOL    HW2 5715   3.009   1.321   1.389
 1457SOL     OW 5716   3.454   1.629   1.625
 1457SOL    HW1 5717   3.481   1.663   1.535
 1457SOL    HW2 5718   3.533   1.591   1.671
 1458SOL     OW 5719   2.973   1.195   1.100
 1458SOL    HW1 5720   2.933   1.239   1.181
 1458SOL    HW2 5721   2.932   1.232   1.017
 1459SOL     OW 5722   3.500   1.099   1.079
 1459SOL    HW1 5723   3.505   1.180   1.138
 1459SOL    HW2 5724   3.414   1.101   1.028
 1460SOL     OW 5725   2.777   0.089   1.402
 1460SOL    HW1 5726   2.802   0.069   1.307
 1460SOL    HW2 5727   2.849   0.145   1.444
 1461SOL     OW 5728   2.842   1.116   1.719
 1461SOL    HW1 5729   2.743   1.122   1.729
 1461SOL    HW2 5730   2.865   1.036   1.663
 1462SOL     OW 5731   2.567   1.050   0.368
 1462SOL    HW1 5732   2.553   1.057   0.467
 1462SOL    HW2 5733   2.651   0.999   0.350
 1463SOL     OW 5734   2.272   0.813   1.251
 1463SOL    HW1 5735   2.358   0.825   1.301
 1463SOL    HW2 5736   2.230   0.726   1.278
 1464SOL     OW 5737   1.926   1.564   1.331
 1464SOL    HW1 5738   1.880   1.646   1.297
 1464SOL    HW2 5739   2.024   1.583   1.340
 1465SOL     OW 5740   2.229   1.100   0.501
 1465SOL    HW1 5741   2.222   1.183   0.445
 1465SOL    HW2 5742   2.233   1.020   0.441
 1466SOL     OW 5743   2.428   0.537   0.865
 1466SOL    HW1 5744   2.440   0.603   0.791
 1466SOL    HW2 5745   2.474   0.571   0.948
 1467SOL     OW 5746   3.114   1.348   0.388
 1467SOL    HW1 5747   3.164   1.425   0.428
 1467SOL    HW2 5748   3.019   1.350   0.420
 1468SOL     OW 5749   3.134   1.445   1.142
 1468SOL    HW1 5750   3.181   1.458   1.229
 1468SOL    HW2 5751   3.068   1.371   1.151
 1469SOL     OW 5752   2.264   0.751   1.598
 1469SOL    HW1 5753   2.332   0.806   1.551
 1469SOL    HW2 5754   2.304   0.663   1.625
 1470SOL     OW 5755   3.449   0.779   1.670
 1470SOL    HW1 5756   3.357   0.817   1.665
 1470SOL    HW2 5757   3.509   0.826   1.605
 1471SOL     OW 5758   2.875   0.105   1.770
 1471SOL    HW1 5759   2.881   0.190   1.718
 1471SOL    HW2 5760   2.907   0.029   1.713
 1472SOL     OW 5761   2.366   0.050   1.740
 1472SOL    HW1 5762   2.324  -0.007   1.670
 1472SOL    HW2 5763   2.300   0.119   1.772
 1473SOL     OW 5764   2.435   0.870   1.029
 1473SOL    HW1 5765   2.479   0.959   1.020
 1473SOL    HW2 5766   2.372   0.870   1.106
 1474SOL     OW 5767   3.071   0.525   0.275
 1474SOL    HW1 5768   3.084   0.441   0.329
 1474SOL    HW2 5769   3.042   0.599   0.335
 1475SOL     OW 5770   2.169   0.213   1.231
 1475SOL    HW1 5771   2.146   0.250   1.321
 1475SOL    HW2 5772   2.139   0.118   1.225
 1476SOL     OW 5773   2.594   0.634   1.064
 1476SOL    HW1 5774   2.653   0.608   0.988
 1476SOL    HW2 5775   2.566   0.730   1.053
 1477SOL     OW 5776   3.590   0.935   1.854
 1477SOL    HW1 5777   3.544   0.928   1.765
 1477SOL    HW2 5778   3.528   0.979   1.920
 1478SOL     OW 5779   2.169   0.063   0.618
 1478SOL    HW1 5780   2.158   0.157   0.651
 1478SOL    HW2 5781   2.164   0.000   0.695
 1479SOL     OW 5782   3.484   0.367   0.374
 1479SOL    HW1 5783   3.486   0.291   0.438
 1479SOL    HW2 5784   3.436   0.444   0.414
 1480SOL     OW 5785   2.842   1.573   1.700
 1480SOL    HW1 5786   2.822   1.617   1.612
 1480SOL    HW2 5787   2.881   1.482   1.684
 1481SOL     OW 5788   3.721   1.518   1.605
 1481SOL    HW1 5789   3.735   1.545   1.510
 1481SOL    HW2 5790   3.804   1.540   1.658
 1482SOL     OW 5791   2.212   0.898   1.804
 1482SOL    HW1 5792   2.288   0.942   1.852
 1482SOL    HW2 5793   2.247   0.851   1.722
 1483SOL     OW 5794   3.402   0.274   0.125
 1483SOL    HW1 5795   3.341   0.199   0.148
 1483SOL    HW2 5796   3.424   0.326   0.208
 1484SOL     OW 5797   3.165   0.838   0.042
 1484SOL    HW1 5798   3.199   0.745   0.057
 1484SOL    HW2 5799   3.183   0.865  -0.053
 1485SOL     OW 5800   2.930   1.333   0.849
 1485SOL    HW1 5801   2.937   1.249   0.794
 1485SOL    HW2 5802   2.992   1.402   0.813
 1486SOL     OW 5803   2.181   0.810   0.949
 1486SOL    HW1 5804   2.274   0.846   0.954
 1486SOL    HW2 5805   2.175   0.725   1.001
 1487SOL     OW 5806   2.201   0.509   1.006
 1487SOL    HW1 5807   2.149   0.426   0.989
 1487SOL    HW2 5808   2.278   0.514   0.942
 1488SOL     OW 5809   3.000   0.380   1.678
 1488SOL    HW1 5810   2.955   0.443   1.742
 1488SOL    HW2 5811   3.093   0.411   1.661
 1489SOL     OW 5812   3.022   0.207   1.477
 1489SOL    HW1 5813   3.022   0.271   1.554
 1489SOL    HW2 5814   3.050   0.255   1.394
 1490SOL     OW 5815   1.950   1.801   0.927
 1490SOL    HW1 5816   1.908   1.715   0.900
 1490SOL    HW2 5817   2.044   1.804   0.893
 1491SOL     OW 5818   2.366   1.568   0.910
 1491SOL    HW1 5819   2.432   1.642   0.919
 1491SOL    HW2 5820   2.410   1.489   0.868
 1492SOL     OW 5821   1.902   0.544   1.114
 1492SOL    HW1 5822   1.987   0.511   1.073
 1492SOL    HW2 5823   1.915   0.559   1.212
 1493SOL     OW 5824   2.051   0.520   1.722
 1493SOL    HW1 5825   2.110   0.480   1.652
 1493SOL    HW2 5826   1.993   0.591   1.681
 1494SOL     OW 5827   3.231   0.950   1.660
 1494SOL    HW1 5828   3.270   1.039   1.680
 1494SOL    HW2 5829   3.241   0.930   1.563
 1495SOL     OW 5830   2.677   0.572   0.325
 1495SOL    HW1 5831   2.684   0.483   0.279
 1495SOL    HW2 5832   2.583   0.606   0.317
 1496SOL     OW 5833   3.519   0.604   1.206
 1496SOL    HW1 5834   3.481   0.535   1.268
 1496SOL    HW2 5835   3.601   0.568   1.162
 1497SOL     OW 5836   2.533   0.464   1.269
 1497SOL    HW1 5837   2.499   0.375   1.239
 1497SOL    HW2 5838   2.559   0.518   1.189
 1498SOL     OW 5839   2.792   1.678   1.465
 1498SOL    HW1 5840   2.768   1.660   1.370
 1498SOL    HW2 5841   2.822   1.772   1.475
 1499SOL     OW 5842   2.335   0.500   0.191
 1499SOL    HW1 5843   2.396   0.580   0.195
 1499SOL    HW2 5844   2.240   0.531   0.198
 1500SOL     OW 5845   3.209   1.059   1.234
 1500SOL    HW1 5846   3.233   0.996   1.160
 1500SOL    HW2 5847   3.119   1.099   1.216
 1501SOL     OW 5848   3.164   0.855   0.309
 1501SOL    HW1 5849   3.078   0.824   0.351
 1501SOL    HW2 5850   3.160   0.841   0.210
 1502SOL     OW 5851   3.621   1.747   1.154
 1502SOL    HW1 5852   3.682   1.777   1.081
 1502SOL    HW2 5853   3.583   1.658   1.132
 1503SOL     OW 5854   3.114   1.731   1.128
 1503SOL    HW1 5855   3.198   1.736   1.074
 1503SOL    HW2 5856   3.091   1.635   1.146
 1504SOL     OW 5857   2.550   1.662   1.716
 1504SOL    HW1 5858   2.494   1.743   1.725
 1504SOL    HW2 5859   2.602   1.666   1.630
 1505SOL     OW 5860   2.765   0.086   0.133
 1505SOL    HW1 5861   2.816   0.087   0.047
 1505SOL    HW2 5862   2.821   0.044   0.204
 1506SOL     OW 5863   3.588   0.135   0.523
 1506SOL    HW1 5864   3.661   0.118   0.456
 1506SOL    HW2 5865   3.557   0.048   0.561
 1507SOL     OW 5866   3.250   1.573   0.477
 1507SOL    HW1 5867   3.317   1.585   0.403
 1507SOL    HW2 5868   3.210   1.662   0.500
 1508SOL     OW 5869   1.992   1.794   1.851
 1508SOL    HW1 5870   1.951   1.720   1.904
 1508SOL    HW2 5871   2.056   1.845   1.909
 1509SOL     OW 5872   3.142   0.927   0.672
 1509SOL    HW1 5873   3.202   0.846   0.674
 1509SOL    HW2 5874   3.182   0.996   0.612
 1510SOL     OW 5875   2.692   1.273   1.422
 1510SOL    HW1 5876   2.687   1.306   1.517
 1510SOL    HW2 5877   2.606   1.292   1.376
 1511SOL     OW 5878   2.534   1.616   0.154
 1511SOL    HW1 5879   2.543   1.626   0.055
 1511SOL    HW2 5880   2.494   1.527   0.175
 1512SOL     OW 5881   3.512   1.720   1.394
 1512SOL    HW1 5882   3.565   1.730   1.310
 1512SOL    HW2 5883   3.485   1.810   1.428
 1513SOL     OW 5884   2.125   0.326   0.720
 1513SOL    HW1 5885   2.046   0.377   0.686
 1513SOL    HW2 5886   2.116   0.311   0.818
 1514SOL     OW 5887   3.056   1.612   0.031
 1514SOL    HW1 5888   3.062   1.519   0.068
 1514SOL    HW2 5889   2.997   1.612  -0.049
 1515SOL     OW 5890   2.684   1.002   1.372
 1515SOL    HW1 5891   2.724   1.001   1.280
 1515SOL    HW2 5892   2.694   1.094   1.412
 1516SOL     OW 5893   2.778   0.910   0.291
 1516SOL    HW1 5894   2.841   0.948   0.223
 1516SOL    HW2 5895   2.818   0.827   0.330
 1517SOL     OW 5896   3.366   1.607   0.044
 1517SOL    HW1 5897   3.274   1.644   0.051
 1517SOL    HW2 5898   3.404   1.627  -0.046
 1518SOL     OW 5899   3.476   1.292   1.289
 1518SOL    HW1 5900   3.536   1.295   1.369
 1518SOL    HW2 5901   3.401   1.356   1.302
 1519SOL     OW 5902   2.901   1.098   0.696
 1519SOL    HW1 5903   2.831   1.051   0.750
 1519SOL    HW2 5904   2.960   1.030   0.653
 1520SOL     OW 5905   2.876   0.236   0.971
 1520SOL    HW1 5906   2.868   0.200   0.878
 1520SOL    HW2 5907   2.874   0.160   1.036
 1521SOL     OW 5908   2.452   1.487   0.491
 1521SOL    HW1 5909   2.494   1.429   0.421
 1521SOL    HW2 5910   2.408   1.566   0.447
 1522SOL     OW 5911   3.571   0.385   1.381
 1522SOL    HW1 5912   3.644   0.454   1.385
 1522SOL    HW2 5913   3.599   0.310   1.322
 1523SOL     OW 5914   2.117   1.348   0.290
 1523SOL    HW1 5915   2.021   1.349   0.263
 1523SOL    HW2 5916   2.129   1.401   0.374
 1524SOL     OW 5917   1.967   1.013   1.726
 1524SOL    HW1 5918   1.890   0.980   1.780
 1524SOL    HW2 5919   2.052   0.983   1.768
 1525SOL     OW 5920   2.534   0.203   1.489
 1525SOL    HW1 5921   2.624   0.187   1.449
 1525SOL    HW2 5922   2.542   0.208   1.588
 1526SOL     OW 5923   3.302   0.856   1.398
 1526SOL    HW1 5924   3.245   0.908   1.335
 1526SOL    HW2 5925   3.398   0.868   1.374
 1527SOL     OW 5926   1.934   0.166   0.318
 1527SOL    HW1 5927   1.917   0.249   0.264
 1527SOL    HW2 5928   2.024   0.129   0.296
 1528SOL     OW 5929   3.045   1.335   0.119
 1528SOL    HW1 5930   2.946   1.324   0.121
 1528SOL    HW2 5931   3.079   1.350   0.212
 1529SOL     OW 5932   2.475   0.842   1.431
 1529SOL    HW1 5933   2.531   0.923   1.414
 1529SOL    HW2 5934   2.534   0.762   1.434
 1530SOL     OW 5935   3.355   1.767   0.959
 1530SOL    HW1 5936   3.388   1.831   0.890
 1530SOL    HW2 5937   3.421   1.761   1.034
 1531SOL     OW 5938   2.578   0.565   1.708
 1531SOL    HW1 5939   2.597   0.630   1.782
 1531SOL    HW2 5940   2.638   0.485   1.717
 1532SOL     OW 5941   3.312   1.220   1.633
 1532SOL    HW1 5942   3.303   1.210   1.732
 1532SOL    HW2 5943   3.408   1.213   1.607
 1533SOL     OW 5944   2.252   1.741   1.560
 1533SOL    HW1 5945   2.161   1.782   1.558
 1533SOL    HW2 5946   2.245   1.647   1.592
 1534SOL     OW 5947   3.536   0.883   1.254
 1534SOL    HW1 5948   3.509   0.794   1.217
 1534SOL    HW2 5949   3.537   0.951   1.181
 1535SOL     OW 5950   3.087   0.325   0.449
 1535SOL    HW1 5951   3.152   0.251   0.438
 1535SOL    HW2 5952   3.107   0.375   0.533
 1536SOL     OW 5953   2.456   0.745   0.652
 1536SOL    HW1 5954   2.506   0.830   0.633
 1536SOL    HW2 5955   2.368   0.747   0.604
 1537SOL     OW 5956   3.639   0.342   1.642
 1537SOL    HW1 5957   3.622   0.373   1.548
 1537SOL    HW2 5958   3.555   0.305   1.680
 1538SOL     OW 5959   3.592   0.934   1.517
 1538SOL    HW1 5960   3.630   1.025   1.532
 1538SOL    HW2 5961   3.584   0.917   1.418
 1539SOL     OW 5962   2.721   1.374   0.016
 1539SOL    HW1 5963   2.675   1.389   0.104
 1539SOL    HW2 5964   2.765   1.459  -0.014
 1540SOL     OW 5965   2.523   1.790   0.953
 1540SOL    HW1 5966   2.477   1.878   0.940
 1540SOL    HW2 5967   2.622   1.802   0.946
 1541SOL     OW 5968   2.721   0.956   0.861
 1541SOL    HW1 5969   2.775   0.887   0.909
 1541SOL    HW2 5970   2.689   1.025   0.927
 1542SOL     OW 5971   2.945   0.984   0.087
 1542SOL    HW1 5972   2.922   1.037   0.005
 1542SOL    HW2 5973   3.026   0.928   0.068
 1543SOL     OW 5974   3.723   1.569   0.851
 1543SOL    HW1 5975   3.652   1.557   0.781
 1543SOL    HW2 5976   3.724   1.490   0.911
 1544SOL     OW 5977   2.083   1.314   1.844
 1544SOL    HW1 5978   2.018   1.241   1.823
 1544SOL    HW2 5979   2.087   1.328   1.942
 1545SOL     OW 5980   1.941   1.240   0.653
 1545SOL    HW1 5981   1.940   1.193   0.741
 1545SOL    HW2 5982   2.023   1.212   0.602
 1546SOL     OW 5983   2.534   1.391   1.624
 1546SOL    HW1 5984   2.456   1.341   1.662
 1546SOL    HW2 5985   2.531   1.486   1.655
 1547SOL     OW 5986   3.686   0.192   1.227
 1547SOL    HW1 5987   3.682   0.102   1.271
 1547SOL    HW2 5988   3.689   0.181   1.128
 1548SOL     OW 5989   2.290   0.424   0.520
 1548SOL    HW1 5990   2.320   0.352   0.458
 1548SOL    HW2 5991   2.251   0.384   0.603
 1549SOL     OW 5992   3.567   1.487   1.104
 1549SOL    HW1 5993   3.474   1.462   1.077
 1549SOL    HW2 5994   3.593   1.437   1.186
 1550SOL     OW 5995   2.179   0.547   1.280
 1550SOL    HW1 5996   2.217   0.488   1.352
 1550SOL    HW2 5997   2.219   0.521   1.192
 1551SOL     OW 5998   2.674   1.586   0.687
 1551SOL    HW1 5999   2.706   1.596   0.593
 1551SOL    HW2 6000   2.595   1.524   0.689
 1552SOL     OW 6001   2.863   0.034   1.154
 1552SOL    HW1 6002   2.800  -0.038   1.123
 1552SOL    HW2 6003   2.956  -0.002   1.154
 1553SOL     OW 6004   2.632   1.330   0.301
 1553SOL    HW1 6005   2.586   1.243   0.318
 1553SOL    HW2 6006   2.723   1.327   0.342
 1554SOL     OW 6007   2.480   1.567   1.284
 1554SOL    HW1 6008   2.475   1.649   1.341
 1554SOL    HW2 6009   2.569   1.564   1.239
 1555SOL     OW 6010   3.214   0.052   0.168
 1555SOL    HW1 6011   3.249   0.011   0.084
 1555SOL    HW2 6012   3.124   0.014   0.188
 1556SOL     OW 6013   3.162   0.453   0.691
 1556SOL    HW1 6014   3.103   0.533   0.695
 1556SOL    HW2 6015   3.177   0.418   0.784
 1557SOL     OW 6016   1.901   1.077   0.300
 1557SOL    HW1 6017   2.000   1.066   0.291
 1557SOL    HW2 6018   1.861   0.991   0.332
 1558SOL     OW 6019   2.737   1.646   0.337
 1558SOL    HW1 6020   2.660   1.611   0.283
 1558SOL    HW2 6021   2.705   1.717   0.399
 1559SOL     OW 6022   2.092   0.628   1.975
 1559SOL    HW1 6023   1.999   0.626   2.012
 1559SOL    HW2 6024   2.093   0.589   1.883
 1560SOL     OW 6025   2.087   0.275   2.858
 1560SOL    HW1 6026   2.122   0.258   2.950
 1560SOL    HW2 6027   1.999   0.230   2.846
 1561SOL     OW 6028   2.431   1.275   3.027
 1561SOL    HW1 6029   2.338   1.268   2.990
 1561SOL    HW2 6030   2.442   1.364   3.071
 1562SOL     OW 6031   3.417   1.511   2.565
 1562SOL    HW1 6032   3.360   1.495   2.646
 1562SOL    HW2 6033   3.358   1.521   2.485
 1563SOL     OW 6034   3.617   0.607   2.093
 1563SOL    HW1 6035   3.605   0.594   1.994
 1563SOL    HW2 6036   3.587   0.526   2.142
 1564SOL     OW 6037   2.630   1.144   2.885
 1564SOL    HW1 6038   2.552   1.161   2.945
 1564SOL    HW2 6039   2.664   1.231   2.849
 1565SOL     OW 6040   2.712   0.798   3.685
 1565SOL    HW1 6041   2.708   0.874   3.750
 1565SOL    HW2 6042   2.734   0.834   3.594
 1566SOL     OW 6043   2.547   1.012   2.527
 1566SOL    HW1 6044   2.616   0.996   2.597
 1566SOL    HW2 6045   2.474   1.069   2.565
 1567SOL     OW 6046   2.548   1.161   3.665
 1567SOL    HW1 6047   2.608   1.240   3.679
 1567SOL    HW2 6048   2.462   1.192   3.624
 1568SOL     OW 6049   2.197   1.435   2.923
 1568SOL    HW1 6050   2.119   1.404   2.870
 1568SOL    HW2 6051   2.255   1.493   2.866
 1569SOL     OW 6052   3.322   1.505   3.201
 1569SOL    HW1 6053   3.346   1.599   3.227
 1569SOL    HW2 6054   3.306   1.451   3.283
 1570SOL     OW 6055   2.300   0.392   3.361
 1570SOL    HW1 6056   2.382   0.336   3.370
 1570SOL    HW2 6057   2.219   0.334   3.365
 1571SOL     OW 6058   3.465   0.447   2.599
 1571SOL    HW1 6059   3.391   0.493   2.549
 1571SOL    HW2 6060   3.516   0.515   2.652
 1572SOL     OW 6061   2.093   1.713   2.345
 1572SOL    HW1 6062   2.127   1.790   2.399
 1572SOL    HW2 6063   2.137   1.713   2.255
 1573SOL     OW 6064   2.989   1.341   3.552
 1573SOL    HW1 6065   3.036   1.341   3.640
 1573SOL    HW2 6066   2.941   1.254   3.541
 1574SOL     OW 6067   2.092   1.434   2.400
 1574SOL    HW1 6068   2.066   1.530   2.400
 1574SOL    HW2 6069   2.021   1.380   2.445
 1575SOL     OW 6070   2.102   1.091   2.748
 1575SOL    HW1 6071   2.116   1.007   2.800
 1575SOL    HW2 6072   2.047   1.155   2.803
 1576SOL     OW 6073   2.482   1.786   3.301
 1576SOL    HW1 6074   2.390   1.769   3.336
 1576SOL    HW2 6075   2.510   1.878   3.327
 1577SOL     OW 6076   2.468   0.964   1.985
 1577SOL    HW1 6077   2.475   1.048   1.931
 1577SOL    HW2 6078   2.514   0.977   2.073
 1578SOL     OW 6079   1.984   0.643   2.425
 1578SOL    HW1 6080   1.939   0.555   2.442
 1578SOL    HW2 6081   1.983   0.697   2.509
 1579SOL     OW 6082   3.704   1.767   2.221
 1579SOL    HW1 6083   3.758   1.738   2.301
 1579SOL    HW2 6084   3.734   1.857   2.192
 1580SOL     OW 6085   1.889   1.596   1.979
 1580SOL    HW1 6086   1.870   1.500   2.000
 1580SOL    HW2 6087   1.856   1.654   2.054
 1581SOL     OW 6088   3.551   0.922   2.474
 1581SOL    HW1 6089   3.646   0.893   2.482
 1581SOL    HW2 6090   3.543   0.987   2.399
 1582SOL     OW 6091   3.503   1.108   2.294
 1582SOL    HW1 6092   3.589   1.110   2.242
 1582SOL    HW2 6093   3.517   1.155   2.382
 1583SOL     OW 6094   2.475   1.365   2.588
 1583SOL    HW1 6095   2.426   1.278   2.597
 1583SOL    HW2 6096   2.452   1.408   2.501
 1584SOL     OW 6097   3.155   1.228   3.285
 1584SOL    HW1 6098   3.192   1.155   3.227
 1584SOL    HW2 6099   3.207   1.233   3.370
 1585SOL     OW 6100   2.671   0.004   2.364
 1585SOL    HW1 6101   2.711   0.095   2.355
 1585SOL    HW2 6102   2.571   0.012   2.370
 1586SOL     OW 6103   2.059   0.976   3.126
 1586SOL    HW1 6104   2.148   0.931   3.112
 1586SOL    HW2 6105   1.986   0.911   3.107
 1587SOL     OW 6106   3.387   0.999   2.052
 1587SOL    HW1 6107   3.324   0.923   2.065
 1587SOL    HW2 6108   3.435   1.017   2.138
 1588SOL     OW 6109   3.049   1.792   3.478
 1588SOL    HW1 6110   3.073   1.852   3.402
 1588SOL    HW2 6111   3.056   1.697   3.448
 1589SOL     OW 6112   2.179   0.251   3.663
 1589SOL    HW1 6113   2.250   0.322   3.669
 1589SOL    HW2 6114   2.091   0.290   3.691
 1590SOL     OW 6115   3.328   1.417   2.815
 1590SOL    HW1 6116   3.269   1.423   2.895
 1590SOL    HW2 6117   3.313   1.329   2.769
 1591SOL     OW 6118   3.529   1.714   2.434
 1591SOL    HW1 6119   3.488   1.691   2.346
 1591SOL    HW2 6120   3.511   1.640   2.499
 1592SOL     OW 6121   2.460   0.729   2.132
 1592SOL    HW1 6122   2.484   0.798   2.064
 1592SOL    HW2 6123   2.382   0.762   2.186
 1593SOL     OW 6124   3.143   0.345   2.806
 1593SOL    HW1 6125   3.057   0.295   2.793
 1593SOL    HW2 6126   3.205   0.291   2.862
 1594SOL     OW 6127   3.438   1.662   2.169
 1594SOL    HW1 6128   3.527   1.708   2.172
 1594SOL    HW2 6129   3.417   1.638   2.074
 1595SOL     OW 6130   2.669   0.605   3.327
 1595SOL    HW1 6131   2.622   0.602   3.416
 1595SOL    HW2 6132   2.618   0.550   3.261
 1596SOL     OW 6133   3.256   0.469   3.536
 1596SOL    HW1 6134   3.236   0.512   3.624
 1596SOL    HW2 6135   3.334   0.407   3.545
 1597SOL     OW 6136   2.835   0.890   3.434
 1597SOL    HW1 6137   2.881   0.806   3.405
 1597SOL    HW2 6138   2.779   0.924   3.359
 1598SOL     OW 6139   2.853   0.410   3.104
 1598SOL    HW1 6140   2.776   0.444   3.158
 1598SOL    HW2 6141   2.819   0.359   3.025
 1599SOL     OW 6142   1.938   0.811   2.651
 1599SOL    HW1 6143   2.037   0.799   2.660
 1599SOL    HW2 6144   1.914   0.906   2.672
 1600SOL     OW 6145   1.992   1.821   3.433
 1600SOL    HW1 6146   1.982   1.806   3.532
 1600SOL    HW2 6147   1.906   1.857   3.397
 1601SOL     OW 6148   2.727   0.348   2.057
 1601SOL    HW1 6149   2.786   0.411   2.008
 1601SOL    HW2 6150   2.746   0.254   2.028
 1602SOL     OW 6151   3.581   0.585   3.693
 1602SOL    HW1 6152   3.555   0.674   3.657
 1602SOL    HW2 6153   3.579   0.517   3.620
 1603SOL     OW 6154   3.224   1.144   2.407
 1603SOL    HW1 6155   3.307   1.115   2.359
 1603SOL    HW2 6156   3.175   1.211   2.351
 1604SOL     OW 6157   2.412   0.196   2.747
 1604SOL    HW1 6158   2.407   0.191   2.847
 1604SOL    HW2 6159   2.414   0.292   2.718
 1605SOL     OW 6160   2.870   1.456   2.339
 1605SOL    HW1 6161   2.824   1.528   2.287
 1605SOL    HW2 6162   2.866   1.476   2.437
 1606SOL     OW 6163   2.213   1.801   2.715
 1606SOL    HW1 6164   2.263   1.715   2.721
 1606SOL    HW2 6165   2.278   1.878   2.712
 1607SOL     OW 6166   3.657   1.066   2.735
 1607SOL    HW1 6167   3.595   1.051   2.659
 1607SOL    HW2 6168   3.605   1.077   2.820
 1608SOL     OW 6169   3.089   1.550   3.368
 1608SOL    HW1 6170   3.095   1.473   3.432
 1608SOL    HW2 6171   3.037   1.524   3.288
 1609SOL     OW 6172   2.183   0.943   2.104
 1609SOL    HW1 6173   2.265   0.982   2.062
 1609SOL    HW2 6174   2.156   0.861   2.055
 1610SOL     OW 6175   2.323   1.266   3.589
 1610SOL    HW1 6176   2.273   1.267   3.503
 1610SOL    HW2 6177   2.260   1.248   3.665
 1611SOL     OW 6178   2.973   1.776   2.099
 1611SOL    HW1 6179   2.913   1.714   2.149
 1611SOL    HW2 6180   3.004   1.732   2.014
 1612SOL     OW 6181   2.064   0.285   3.360
 1612SOL    HW1 6182   1.984   0.345   3.347
 1612SOL    HW2 6183   2.054   0.236   3.446
 1613SOL     OW 6184   3.494   1.377   1.943
 1613SOL    HW1 6185   3.462   1.471   1.933
 1613SOL    HW2 6186   3.418   1.314   1.931
 1614SOL     OW 6187   2.326   1.743   2.185
 1614SOL    HW1 6188   2.359   1.782   2.271
 1614SOL    HW2 6189   2.402   1.736   2.120
 1615SOL     OW 6190   3.262   0.107   2.288
 1615SOL    HW1 6191   3.238   0.070   2.198
 1615SOL    HW2 6192   3.361   0.123   2.292
 1616SOL     OW 6193   2.111   1.785   3.103
 1616SOL    HW1 6194   2.168   1.720   3.153
 1616SOL    HW2 6195   2.095   1.752   3.010
 1617SOL     OW 6196   2.802   1.698   2.766
 1617SOL    HW1 6197   2.882   1.641   2.787
 1617SOL    HW2 6198   2.753   1.658   2.689
 1618SOL     OW 6199   2.244   0.700   2.342
 1618SOL    HW1 6200   2.289   0.610   2.339
 1618SOL    HW2 6201   2.150   0.689   2.375
 1619SOL     OW 6202   3.409   0.222   3.591
 1619SOL    HW1 6203   3.404   0.259   3.683
 1619SOL    HW2 6204   3.337   0.153   3.579
 1620SOL     OW 6205   2.476   0.122   1.979
 1620SOL    HW1 6206   2.574   0.100   1.986
 1620SOL    HW2 6207   2.445   0.105   1.886
 1621SOL     OW 6208   2.643   0.264   3.611
 1621SOL    HW1 6209   2.710   0.203   3.654
 1621SOL    HW2 6210   2.570   0.283   3.676
 1622SOL     OW 6211   2.750   1.514   3.057
 1622SOL    HW1 6212   2.727   1.489   2.963
 1622SOL    HW2 6213   2.811   1.445   3.096
 1623SOL     OW 6214   3.213   0.590   3.295
 1623SOL    HW1 6215   3.241   0.547   3.380
 1623SOL    HW2 6216   3.238   0.686   3.296
 1624SOL     OW 6217   2.665   1.402   2.786
 1624SOL    HW1 6218   2.755   1.416   2.744
 1624SOL    HW2 6219   2.594   1.404   2.715
 1625SOL     OW 6220   2.401   0.064   2.374
 1625SOL    HW1 6221   2.320   0.065   2.432
 1625SOL    HW2 6222   2.404   0.147   2.319
 1626SOL     OW 6223   3.296   1.188   1.903
 1626SOL    HW1 6224   3.328   1.112   1.960
 1626SOL    HW2 6225   3.204   1.215   1.933
 1627SOL     OW 6226   2.159   0.035   2.033
 1627SOL    HW1 6227   2.208   0.119   2.012
 1627SOL    HW2 6228   2.221  -0.030   2.078
 1628SOL     OW 6229   2.797   0.236   2.342
 1628SOL    HW1 6230   2.749   0.277   2.264
 1628SOL    HW2 6231   2.896   0.234   2.323
 1629SOL     OW 6232   2.938   0.683   3.326
 1629SOL    HW1 6233   2.858   0.622   3.329
 1629SOL    HW2 6234   3.019   0.630   3.302
 1630SOL     OW 6235   3.089   1.570   2.655
 1630SOL    HW1 6236   3.110   1.644   2.590
 1630SOL    HW2 6237   3.157   1.570   2.728
 1631SOL     OW 6238   2.321   1.152   2.603
 1631SOL    HW1 6239   2.250   1.125   2.668
 1631SOL    HW2 6240   2.295   1.124   2.510
 1632SOL     OW 6241   3.133   1.797   2.453
 1632SOL    HW1 6242   3.177   1.861   2.389
 1632SOL    HW2 6243   3.083   1.849   2.523
 1633SOL     OW 6244   2.894   0.549   1.878
 1633SOL    HW1 6245   2.853   0.631   1.839
 1633SOL    HW2 6246   2.958   0.575   1.951
 1634SOL     OW 6247   2.879   0.039   2.615
 1634SOL    HW1 6248   2.807   0.044   2.546
 1634SOL    HW2 6249   2.855  -0.030   2.684
 1635SOL     OW 6250   3.291   1.173   2.729
 1635SOL    HW1 6251   3.236   1.089   2.722
 1635SOL    HW2 6252   3.317   1.202   2.637
 1636SOL     OW 6253   3.328   0.590   2.854
 1636SOL    HW1 6254   3.298   0.495   2.861
 1636SOL    HW2 6255   3.401   0.606   2.920
 1637SOL     OW 6256   3.719   0.833   2.239
 1637SOL    HW1 6257   3.761   0.769   2.303
 1637SOL    HW2 6258   3.681   0.782   2.161
 1638SOL     OW 6259   2.350   1.385   2.036
 1638SOL    HW1 6260   2.263   1.370   2.083
 1638SOL    HW2 6261   2.333   1.411   1.941
 1639SOL     OW 6262   3.526   1.280   2.519
 1639SOL    HW1 6263   3.625   1.288   2.533
 1639SOL    HW2 6264   3.481   1.364   2.550
 1640SOL     OW 6265   3.252   0.575   1.940
 1640SOL    HW1 6266   3.198   0.554   2.021
 1640SOL    HW2 6267   3.343   0.534   1.949
 1641SOL     OW 6268   2.389   0.256   2.190
 1641SOL    HW1 6269   2.416   0.197   2.115
 1641SOL    HW2 6270   2.389   0.351   2.159
 1642SOL     OW 6271   3.616   1.223   3.450
 1642SOL    HW1 6272   3.707   1.184   3.437
 1642SOL    HW2 6273   3.624   1.319   3.474
 1643SOL     OW 6274   2.926   1.347   3.202
 1643SOL    HW1 6275   2.846   1.324   3.257
 1643SOL    HW2 6276   3.009   1.321   3.251
 1644SOL     OW 6277   3.454   1.629   3.487
 1644SOL    HW1 6278   3.481   1.663   3.397
 1644SOL    HW2 6279   3.533   1.591   3.533
 1645SOL     OW 6280   2.973   1.195   2.962
 1645SOL    HW1 6281   2.933   1.239   3.043
 1645SOL    HW2 6282   2.932   1.232   2.879
 1646SOL     OW 6283   3.500   1.099   2.941
 1646SOL    HW1 6284   3.505   1.180   3.000
 1646SOL    HW2 6285   3.414   1.101   2.890
 1647SOL     OW 6286   2.777   0.089   3.264
 1647SOL    HW1 6287   2.802   0.069   3.169
 1647SOL    HW2 6288   2.849   0.145   3.306
 1648SOL     OW 6289   2.842   1.116   3.581
 1648SOL    HW1 6290   2.743   1.122   3.591
 1648SOL    HW2 6291   2.865   1.036   3.525
 1649SOL     OW 6292   2.567   1.050   2.230
 1649SOL    HW1 6293   2.553   1.057   2.329
 1649SOL    HW2 6294   2.651   0.999   2.212
 1650SOL     OW 6295   2.272   0.813   3.113
 1650SOL    HW1 6296   2.358   0.825   3.163
 1650SOL    HW2 6297   2.230   0.726   3.140
 1651SOL     OW 6298   3.136   0.386   3.124
 1651SOL    HW1 6299   3.157   0.460   3.188
 1651SOL    HW2 6300   3.047   0.403   3.081
 1652SOL     OW 6301   1.926   1.564   3.193
 1652SOL    HW1 6302   1.880   1.646   3.159
 1652SOL    HW2 6303   2.024   1.583   3.202
 1653SOL     OW 6304   2.229   1.100   2.363
 1653SOL    HW1 6305   2.222   1.183   2.307
 1653SOL    HW2 6306   2.233   1.020   2.303
 1654SOL     OW 6307   2.428   0.537   2.727
 1654SOL    HW1 6308   2.440   0.603   2.653
 1654SOL    HW2 6309   2.474   0.571   2.810
 1655SOL     OW 6310   3.114   1.348   2.250
 1655SOL    HW1 6311   3.164   1.425   2.290
 1655SOL    HW2 6312   3.019   1.350   2.282
 1656SOL     OW 6313   3.134   1.445   3.004
 1656SOL    HW1 6314   3.181   1.458   3.091
 1656SOL    HW2 6315   3.068   1.371   3.013
 1657SOL     OW 6316   3.444   0.639   2.334
 1657SOL    HW1 6317   3.413   0.700   2.407
 1657SOL    HW2 6318   3.494   0.691   2.265
 1658SOL     OW 6319   2.216   1.510   3.191
 1658SOL    HW1 6320   2.195   1.466   3.104
 1658SOL    HW2 6321   2.313   1.536   3.194
 1659SOL     OW 6322   2.264   0.751   3.460
 1659SOL    HW1 6323   2.332   0.806   3.413
 1659SOL    HW2 6324   2.304   0.663   3.487
 1660SOL     OW 6325   3.449   0.779   3.532
 1660SOL    HW1 6326   3.357   0.817   3.527
 1660SOL    HW2 6327   3.509   0.826   3.467
 1661SOL     OW 6328   2.875   0.105   3.632
 1661SOL    HW1 6329   2.881   0.190   3.580
 1661SOL    HW2 6330   2.907   0.029   3.575
 1662SOL     OW 6331   2.366   0.050   3.602
 1662SOL    HW1 6332   2.324  -0.007   3.532
 1662SOL    HW2 6333   2.300   0.119   3.634
 1663SOL     OW 6334   2.435   0.870   2.891
 1663SOL    HW1 6335   2.479   0.959   2.882
 1663SOL    HW2 6336   2.372   0.870   2.968
 1664SOL     OW 6337   3.222   0.862   2.907
 1664SOL    HW1 6338   3.147   0.862   2.841
 1664SOL    HW2 6339   3.259   0.770   2.916
 1665SOL     OW 6340   1.899   1.310   3.144
 1665SOL    HW1 6341   1.952   1.261   3.212
 1665SOL    HW2 6342   1.921   1.408   3.149
 1666SOL     OW 6343   2.594   0.634   2.926
 1666SOL    HW1 6344   2.653   0.608   2.850
 1666SOL    HW2 6345   2.566   0.730   2.915
 1667SOL     OW 6346   3.590   0.935   3.716
 1667SOL    HW1 6347   3.544   0.928   3.627
 1667SOL    HW2 6348   3.528   0.979   3.782
 1668SOL     OW 6349   2.169   0.063   2.480
 1668SOL    HW1 6350   2.158   0.157   2.513
 1668SOL    HW2 6351   2.164   0.000   2.557
 1669SOL     OW 6352   3.484   0.367   2.236
 1669SOL    HW1 6353   3.486   0.291   2.300
 1669SOL    HW2 6354   3.436   0.444   2.276
 1670SOL     OW 6355   2.885   0.766   2.828
 1670SOL    HW1 6356   2.900   0.787   2.924
 1670SOL    HW2 6357   2.855   0.671   2.819
 1671SOL     OW 6358   3.721   1.518   3.467
 1671SOL    HW1 6359   3.735   1.545   3.372
 1671SOL    HW2 6360   3.804   1.540   3.520
 1672SOL     OW 6361   2.212   0.898   3.666
 1672SOL    HW1 6362   2.288   0.942   3.714
 1672SOL    HW2 6363   2.247   0.851   3.584
 1673SOL     OW 6364   3.402   0.274   1.987
 1673SOL    HW1 6365   3.341   0.199   2.010
 1673SOL    HW2 6366   3.424   0.326   2.070
 1674SOL     OW 6367   3.165   0.838   1.904
 1674SOL    HW1 6368   3.199   0.745   1.919
 1674SOL    HW2 6369   3.183   0.865   1.809
 1675SOL     OW 6370   2.930   1.333   2.711
 1675SOL    HW1 6371   2.937   1.249   2.656
 1675SOL    HW2 6372   2.992   1.402   2.675
 1676SOL     OW 6373   2.181   0.810   2.811
 1676SOL    HW1 6374   2.274   0.846   2.816
 1676SOL    HW2 6375   2.175   0.725   2.863
 1677SOL     OW 6376   2.201   0.509   2.868
 1677SOL    HW1 6377   2.149   0.426   2.851
 1677SOL    HW2 6378   2.278   0.514   2.804
 1678SOL     OW 6379   3.000   0.380   3.540
 1678SOL    HW1 6380   2.955   0.443   3.604
 1678SOL    HW2 6381   3.093   0.411   3.523
 1679SOL     OW 6382   3.022   0.207   3.339
 1679SOL    HW1 6383   3.022   0.271   3.416
 1679SOL    HW2 6384   3.050   0.255   3.256
 1680SOL     OW 6385   1.870   1.326   2.062
 1680SOL    HW1 6386   1.777   1.347   2.031
 1680SOL    HW2 6387   1.880   1.227   2.075
 1681SOL     OW 6388   1.950   1.801   2.789
 1681SOL    HW1 6389   1.908   1.715   2.762
 1681SOL    HW2 6390   2.044   1.804   2.755
 1682SOL     OW 6391   2.366   1.568   2.772
 1682SOL    HW1 6392   2.432   1.642   2.781
 1682SOL    HW2 6393   2.410   1.489   2.730
 1683SOL     OW 6394   2.864   0.796   3.100
 1683SOL    HW1 6395   2.905   0.764   3.186
 1683SOL    HW2 6396   2.768   0.769   3.097
 1684SOL     OW 6397   2.051   0.520   3.584
 1684SOL    HW1 6398   2.110   0.480   3.514
 1684SOL    HW2 6399   1.993   0.591   3.543
 1685SOL     OW 6400   3.231   0.950   3.522
 1685SOL    HW1 6401   3.270   1.039   3.542
 1685SOL    HW2 6402   3.241   0.930   3.425
 1686SOL     OW 6403   2.677   0.572   2.187
 1686SOL    HW1 6404   2.684   0.483   2.141
 1686SOL    HW2 6405   2.583   0.606   2.179
 1687SOL     OW 6406   3.519   0.604   3.068
 1687SOL    HW1 6407   3.481   0.535   3.130
 1687SOL    HW2 6408   3.601   0.568   3.024
 1688SOL     OW 6409   2.114   1.564   3.606
 1688SOL    HW1 6410   2.084   1.621   3.682
 1688SOL    HW2 6411   2.107   1.467   3.632
 1689SOL     OW 6412   2.533   0.464   3.131
 1689SOL    HW1 6413   2.499   0.375   3.101
 1689SOL    HW2 6414   2.559   0.518   3.051
 1690SOL     OW 6415   2.792   1.678   3.327
 1690SOL    HW1 6416   2.768   1.660   3.232
 1690SOL    HW2 6417   2.822   1.772   3.337
 1691SOL     OW 6418   2.335   0.500   2.053
 1691SOL    HW1 6419   2.396   0.580   2.057
 1691SOL    HW2 6420   2.240   0.531   2.060
 1692SOL     OW 6421   2.021   1.137   3.328
 1692SOL    HW1 6422   2.043   1.076   3.404
 1692SOL    HW2 6423   2.031   1.088   3.242
 1693SOL     OW 6424   3.209   1.059   3.096
 1693SOL    HW1 6425   3.233   0.996   3.022
 1693SOL    HW2 6426   3.119   1.099   3.078
 1694SOL     OW 6427   3.621   1.747   3.016
 1694SOL    HW1 6428   3.682   1.777   2.943
 1694SOL    HW2 6429   3.583   1.658   2.994
 1695SOL     OW 6430   3.114   1.731   2.990
 1695SOL    HW1 6431   3.198   1.736   2.936
 1695SOL    HW2 6432   3.091   1.635   3.008
 1696SOL     OW 6433   1.945   1.258   2.884
 1696SOL    HW1 6434   1.940   1.257   2.984
 1696SOL    HW2 6435   1.862   1.217   2.846
 1697SOL     OW 6436   2.550   1.662   3.578
 1697SOL    HW1 6437   2.494   1.743   3.587
 1697SOL    HW2 6438   2.602   1.666   3.492
 1698SOL     OW 6439   3.588   0.135   2.385
 1698SOL    HW1 6440   3.661   0.118   2.318
 1698SOL    HW2 6441   3.557   0.048   2.423
 1699SOL     OW 6442   3.250   1.573   2.339
 1699SOL    HW1 6443   3.317   1.585   2.265
 1699SOL    HW2 6444   3.210   1.662   2.362
 1700SOL     OW 6445   1.992   1.794   3.713
 1700SOL    HW1 6446   1.951   1.720   3.766
 1700SOL    HW2 6447   2.056   1.845   3.771
 1701SOL     OW 6448   3.142   0.927   2.534
 1701SOL    HW1 6449   3.202   0.846   2.536
 1701SOL    HW2 6450   3.182   0.996   2.474
 1702SOL     OW 6451   2.692   1.273   3.284
 1702SOL    HW1 6452   2.687   1.306   3.379
 1702SOL    HW2 6453   2.606   1.292   3.238
 1703SOL     OW 6454   2.534   1.616   2.016
 1703SOL    HW1 6455   2.543   1.626   1.917
 1703SOL    HW2 6456   2.494   1.527   2.037
 1704SOL     OW 6457   3.512   1.720   3.256
 1704SOL    HW1 6458   3.565   1.730   3.172
 1704SOL    HW2 6459   3.485   1.810   3.290
 1705SOL     OW 6460   3.703   0.175   2.825
 1705SOL    HW1 6461   3.742   0.090   2.789
 1705SOL    HW2 6462   3.605   0.177   2.806
 1706SOL     OW 6463   2.125   0.326   2.582
 1706SOL    HW1 6464   2.046   0.377   2.548
 1706SOL    HW2 6465   2.116   0.311   2.680
 1707SOL     OW 6466   3.056   1.612   1.893
 1707SOL    HW1 6467   3.062   1.519   1.930
 1707SOL    HW2 6468   2.997   1.612   1.813
 1708SOL     OW 6469   2.684   1.002   3.234
 1708SOL    HW1 6470   2.724   1.001   3.142
 1708SOL    HW2 6471   2.694   1.094   3.274
 1709SOL     OW 6472   2.778   0.910   2.153
 1709SOL    HW1 6473   2.841   0.948   2.085
 1709SOL    HW2 6474   2.818   0.827   2.192
 1710SOL     OW 6475   3.366   1.607   1.906
 1710SOL    HW1 6476   3.274   1.644   1.913
 1710SOL    HW2 6477   3.404   1.627   1.816
 1711SOL     OW 6478   2.234   1.288   3.352
 1711SOL    HW1 6479   2.221   1.381   3.318
 1711SOL    HW2 6480   2.150   1.236   3.339
 1712SOL     OW 6481   3.476   1.292   3.151
 1712SOL    HW1 6482   3.536   1.295   3.231
 1712SOL    HW2 6483   3.401   1.356   3.164
 1713SOL     OW 6484   2.901   1.098   2.558
 1713SOL    HW1 6485   2.831   1.051   2.612
 1713SOL    HW2 6486   2.960   1.030   2.515
 1714SOL     OW 6487   2.452   1.487   2.353
 1714SOL    HW1 6488   2.494   1.429   2.283
 1714SOL    HW2 6489   2.408   1.566   2.309
 1715SOL     OW 6490   3.571   0.385   3.243
 1715SOL    HW1 6491   3.644   0.454   3.247
 1715SOL    HW2 6492   3.599   0.310   3.184
 1716SOL     OW 6493   2.117   1.348   2.152
 1716SOL    HW1 6494   2.021   1.349   2.125
 1716SOL    HW2 6495   2.129   1.401   2.236
 1717SOL     OW 6496   1.967   1.013   3.588
 1717SOL    HW1 6497   1.890   0.980   3.642
 1717SOL    HW2 6498   2.052   0.983   3.630
 1718SOL     OW 6499   2.534   0.203   3.351
 1718SOL    HW1 6500   2.624   0.187   3.311
 1718SOL    HW2 6501   2.542   0.208   3.450
 1719SOL     OW 6502   1.937   0.345   1.895
 1719SOL    HW1 6503   1.845   0.317   1.866
 1719SOL    HW2 6504   1.968   0.422   1.839
 1720SOL     OW 6505   3.302   0.856   3.260
 1720SOL    HW1 6506   3.245   0.908   3.197
 1720SOL    HW2 6507   3.398   0.868   3.236
 1721SOL     OW 6508   1.934   0.166   2.180
 1721SOL    HW1 6509   1.917   0.249   2.126
 1721SOL    HW2 6510   2.024   0.129   2.158
 1722SOL     OW 6511   3.045   1.335   1.981
 1722SOL    HW1 6512   2.946   1.324   1.983
 1722SOL    HW2 6513   3.079   1.350   2.074
 1723SOL     OW 6514   2.475   0.842   3.293
 1723SOL    HW1 6515   2.531   0.923   3.276
 1723SOL    HW2 6516   2.534   0.762   3.296
 1724SOL     OW 6517   3.355   1.767   2.821
 1724SOL    HW1 6518   3.388   1.831   2.752
 1724SOL    HW2 6519   3.421   1.761   2.896
 1725SOL     OW 6520   2.578   0.565   3.570
 1725SOL    HW1 6521   2.597   0.630   3.644
 1725SOL    HW2 6522   2.638   0.485   3.579
 1726SOL     OW 6523   3.312   1.220   3.495
 1726SOL    HW1 6524   3.303   1.210   3.594
 1726SOL    HW2 6525   3.408   1.213   3.469
 1727SOL     OW 6526   2.252   1.741   3.422
 1727SOL    HW1 6527   2.161   1.782   3.420
 1727SOL    HW2 6528   2.245   1.647   3.454
 1728SOL     OW 6529   3.536   0.883   3.116
 1728SOL    HW1 6530   3.509   0.794   3.079
 1728SOL    HW2 6531   3.537   0.951   3.043
 1729SOL     OW 6532   2.456   0.745   2.514
 1729SOL    HW1 6533   2.506   0.830   2.495
 1729SOL    HW2 6534   2.368   0.747   2.466
 1730SOL     OW 6535   3.639   0.342   3.504
 1730SOL    HW1 6536   3.622   0.373   3.410
 1730SOL    HW2 6537   3.555   0.305   3.542
 1731SOL     OW 6538   3.592   0.934   3.379
 1731SOL    HW1 6539   3.630   1.025   3.394
 1731SOL    HW2 6540   3.584   0.917   3.280
 1732SOL     OW 6541   2.721   1.374   1.878
 1732SOL    HW1 6542   2.675   1.389   1.966
 1732SOL    HW2 6543   2.765   1.459   1.848
 1733SOL     OW 6544   2.523   1.790   2.815
 1733SOL    HW1 6545   2.477   1.878   2.802
 1733SOL    HW2 6546   2.622   1.802   2.808
 1734SOL     OW 6547   2.721   0.956   2.723
 1734SOL    HW1 6548   2.775   0.887   2.771
 1734SOL    HW2 6549   2.689   1.025   2.789
 1735SOL     OW 6550   2.945   0.984   1.949
 1735SOL    HW1 6551   2.922   1.037   1.867
 1735SOL    HW2 6552   3.026   0.928   1.930
 1736SOL     OW 6553   3.723   1.569   2.713
 1736SOL    HW1 6554   3.652   1.557   2.643
 1736SOL    HW2 6555   3.724   1.490   2.773
 1737SOL     OW 6556   2.083   1.314   3.706
 1737SOL    HW1 6557   2.018   1.241   3.685
 1737SOL    HW2 6558   2.087   1.328   3.804
 1738SOL     OW 6559   1.941   1.240   2.515
 1738SOL    HW1 6560   1.940   1.193   2.603
 1738SOL    HW2 6561   2.023   1.212   2.464
 1739SOL     OW 6562   2.534   1.391   3.486
 1739SOL    HW1 6563   2.456   1.341   3.524
 1739SOL    HW2 6564   2.531   1.486   3.517
 1740SOL     OW 6565   3.686   0.192   3.089
 1740SOL    HW1 6566   3.682   0.102   3.133
 1740SOL    HW2 6567   3.689   0.181   2.990
 1741SOL     OW 6568   2.290   0.424   2.382
 1741SOL    HW1 6569   2.320   0.352   2.320
 1741SOL    HW2 6570   2.251   0.384   2.465
 1742SOL     OW 6571   3.567   1.487   2.966
 1742SOL    HW1 6572   3.474   1.462   2.939
 1742SOL    HW2 6573   3.593   1.437   3.048
 1743SOL     OW 6574   2.674   1.586   2.549
 1743SOL    HW1 6575   2.706   1.596   2.455
 1743SOL    HW2 6576   2.595   1.524   2.551
 1744SOL     OW 6577   3.286   0.214   2.974
 1744SOL    HW1 6578   3.338   0.149   3.029
 1744SOL    HW2 6579   3.237   0.277   3.035
 1745SOL     OW 6580   2.863   0.034   3.016
 1745SOL    HW1 6581   2.800  -0.038   2.985
 1745SOL    HW2 6582   2.956  -0.002   3.016
 1746SOL     OW 6583   2.632   1.330   2.163
 1746SOL    HW1 6584   2.586   1.243   2.180
 1746SOL    HW2 6585   2.723   1.327   2.204
 1747SOL     OW 6586   2.480   1.567   3.146
 1747SOL    HW1 6587   2.475   1.649   3.203
 1747SOL    HW2 6588   2.569   1.564   3.101
 1748SOL     OW 6589   3.214   0.052   2.030
 1748SOL    HW1 6590   3.249   0.011   1.946
 1748SOL    HW2 6591   3.124   0.014   2.050
 1749SOL     OW 6592   3.455   0.221   2.744
 1749SOL    HW1 6593   3.371   0.220   2.798
 1749SOL    HW2 6594   3.457   0.304   2.688
 1750SOL     OW 6595   1.901   1.077   2.162
 1750SOL    HW1 6596   2.000   1.066   2.153
 1750SOL    HW2 6597   1.861   0.991   2.194
 1751SOL     OW 6598   2.737   1.646   2.199
 1751SOL    HW1 6599   2.660   1.611   2.145
 1751SOL    HW2 6600   2.705   1.717   2.261
 1752SOL     OW 6601   2.092   0.628   3.837
 1752SOL    HW1 6602   1.999   0.626   3.874
 1752SOL    HW2 6603   2.093   0.589   3.745
 1753SOL     OW 6604   2.087   0.275   4.720
 1753SOL    HW1 6605   2.122   0.258   4.812
 1753SOL    HW2 6606   1.999   0.230   4.708
 1754SOL     OW 6607   1.881   0.368   4.371
 1754SOL    HW1 6608   1.799   0.411   4.410
 1754SOL    HW2 6609   1.853   0.295   4.308
 1755SOL     OW 6610   2.431   1.275   4.889
 1755SOL    HW1 6611   2.338   1.268   4.852
 1755SOL    HW2 6612   2.442   1.364   4.933
 1756SOL     OW 6613   3.417   1.511   4.427
 1756SOL    HW1 6614   3.360   1.495   4.508
 1756SOL    HW2 6615   3.358   1.521   4.347
 1757SOL     OW 6616   2.997   0.703   4.441
 1757SOL    HW1 6617   3.054   0.781   4.416
 1757SOL    HW2 6618   2.937   0.729   4.517
 1758SOL     OW 6619   3.617   0.607   3.955
 1758SOL    HW1 6620   3.605   0.594   3.856
 1758SOL    HW2 6621   3.587   0.526   4.004
 1759SOL     OW 6622   2.630   1.144   4.747
 1759SOL    HW1 6623   2.552   1.161   4.807
 1759SOL    HW2 6624   2.664   1.231   4.711
 1760SOL     OW 6625   2.547   1.012   4.389
 1760SOL    HW1 6626   2.616   0.996   4.459
 1760SOL    HW2 6627   2.474   1.069   4.427
 1761SOL     OW 6628   2.197   1.435   4.785
 1761SOL    HW1 6629   2.119   1.404   4.732
 1761SOL    HW2 6630   2.255   1.493   4.728
 1762SOL     OW 6631   3.465   0.447   4.461
 1762SOL    HW1 6632   3.391   0.493   4.411
 1762SOL    HW2 6633   3.516   0.515   4.514
 1763SOL     OW 6634   2.093   1.713   4.207
 1763SOL    HW1 6635   2.127   1.790   4.261
 1763SOL    HW2 6636   2.137   1.713   4.117
 1764SOL     OW 6637   2.092   1.434   4.262
 1764SOL    HW1 6638   2.066   1.530   4.262
 1764SOL    HW2 6639   2.021   1.380   4.307
 1765SOL     OW 6640   2.102   1.091   4.610
 1765SOL    HW1 6641   2.116   1.007   4.662
 1765SOL    HW2 6642   2.047   1.155   4.665
 1766SOL     OW 6643   2.482   1.786   5.163
 1766SOL    HW1 6644   2.390   1.769   5.198
 1766SOL    HW2 6645   2.510   1.878   5.189
 1767SOL     OW 6646   2.468   0.964   3.847
 1767SOL    HW1 6647   2.475   1.048   3.793
 1767SOL    HW2 6648   2.514   0.977   3.935
 1768SOL     OW 6649   1.984   0.643   4.287
 1768SOL    HW1 6650   1.939   0.555   4.304
 1768SOL    HW2 6651   1.983   0.697   4.371
 1769SOL     OW 6652   1.889   1.596   3.841
 1769SOL    HW1 6653   1.870   1.500   3.862
 1769SOL    HW2 6654   1.856   1.654   3.916
 1770SOL     OW 6655   3.551   0.922   4.336
 1770SOL    HW1 6656   3.646   0.893   4.344
 1770SOL    HW2 6657   3.543   0.987   4.261
 1771SOL     OW 6658   2.475   1.365   4.450
 1771SOL    HW1 6659   2.426   1.278   4.459
 1771SOL    HW2 6660   2.452   1.408   4.363
 1772SOL     OW 6661   2.671   0.004   4.226
 1772SOL    HW1 6662   2.711   0.095   4.217
 1772SOL    HW2 6663   2.571   0.012   4.232
 1773SOL     OW 6664   2.059   0.976   4.988
 1773SOL    HW1 6665   2.148   0.931   4.974
 1773SOL    HW2 6666   1.986   0.911   4.969
 1774SOL     OW 6667   3.387   0.999   3.914
 1774SOL    HW1 6668   3.324   0.923   3.927
 1774SOL    HW2 6669   3.435   1.017   4.000
 1775SOL     OW 6670   3.328   1.417   4.677
 1775SOL    HW1 6671   3.269   1.423   4.757
 1775SOL    HW2 6672   3.313   1.329   4.631
 1776SOL     OW 6673   2.460   0.729   3.994
 1776SOL    HW1 6674   2.484   0.798   3.926
 1776SOL    HW2 6675   2.382   0.762   4.048
 1777SOL     OW 6676   3.143   0.345   4.668
 1777SOL    HW1 6677   3.057   0.295   4.655
 1777SOL    HW2 6678   3.205   0.291   4.724
 1778SOL     OW 6679   2.853   0.410   4.966
 1778SOL    HW1 6680   2.776   0.444   5.020
 1778SOL    HW2 6681   2.819   0.359   4.887
 1779SOL     OW 6682   2.903   0.701   4.153
 1779SOL    HW1 6683   2.929   0.697   4.249
 1779SOL    HW2 6684   2.818   0.650   4.139
 1780SOL     OW 6685   1.938   0.811   4.513
 1780SOL    HW1 6686   2.037   0.799   4.522
 1780SOL    HW2 6687   1.914   0.906   4.534
 1781SOL     OW 6688   2.727   0.348   3.919
 1781SOL    HW1 6689   2.786   0.411   3.870
 1781SOL    HW2 6690   2.746   0.254   3.890
 1782SOL     OW 6691   3.224   1.144   4.269
 1782SOL    HW1 6692   3.307   1.115   4.221
 1782SOL    HW2 6693   3.175   1.211   4.213
 1783SOL     OW 6694   2.412   0.196   4.609
 1783SOL    HW1 6695   2.407   0.191   4.709
 1783SOL    HW2 6696   2.414   0.292   4.580
 1784SOL     OW 6697   2.870   1.456   4.201
 1784SOL    HW1 6698   2.824   1.528   4.149
 1784SOL    HW2 6699   2.866   1.476   4.299
 1785SOL     OW 6700   2.213   1.801   4.577
 1785SOL    HW1 6701   2.263   1.715   4.583
 1785SOL    HW2 6702   2.278   1.878   4.574
 1786SOL     OW 6703   3.657   1.066   4.597
 1786SOL    HW1 6704   3.595   1.051   4.521
 1786SOL    HW2 6705   3.605   1.077   4.682
 1787SOL     OW 6706   2.183   0.943   3.966
 1787SOL    HW1 6707   2.265   0.982   3.924
 1787SOL    HW2 6708   2.156   0.861   3.917
 1788SOL     OW 6709   3.320   0.735   4.452
 1788SOL    HW1 6710   3.315   0.670   4.527
 1788SOL    HW2 6711   3.400   0.794   4.465
 1789SOL     OW 6712   3.494   1.377   3.805
 1789SOL    HW1 6713   3.462   1.471   3.795
 1789SOL    HW2 6714   3.418   1.314   3.793
 1790SOL     OW 6715   2.326   1.743   4.047
 1790SOL    HW1 6716   2.359   1.782   4.133
 1790SOL    HW2 6717   2.402   1.736   3.982
 1791SOL     OW 6718   3.262   0.107   4.150
 1791SOL    HW1 6719   3.238   0.070   4.060
 1791SOL    HW2 6720   3.361   0.123   4.154
 1792SOL     OW 6721   2.802   1.698   4.628
 1792SOL    HW1 6722   2.882   1.641   4.649
 1792SOL    HW2 6723   2.753   1.658   4.551
 1793SOL     OW 6724   2.244   0.700   4.204
 1793SOL    HW1 6725   2.289   0.610   4.201
 1793SOL    HW2 6726   2.150   0.689   4.237
 1794SOL     OW 6727   2.476   0.122   3.841
 1794SOL    HW1 6728   2.574   0.100   3.848
 1794SOL    HW2 6729   2.445   0.105   3.748
 1795SOL     OW 6730   2.665   1.402   4.648
 1795SOL    HW1 6731   2.755   1.416   4.606
 1795SOL    HW2 6732   2.594   1.404   4.577
 1796SOL     OW 6733   2.784   0.503   4.623
 1796SOL    HW1 6734   2.759   0.494   4.527
 1796SOL    HW2 6735   2.832   0.421   4.654
 1797SOL     OW 6736   2.401   0.064   4.236
 1797SOL    HW1 6737   2.320   0.065   4.294
 1797SOL    HW2 6738   2.404   0.147   4.181
 1798SOL     OW 6739   3.296   1.188   3.765
 1798SOL    HW1 6740   3.328   1.112   3.822
 1798SOL    HW2 6741   3.204   1.215   3.795
 1799SOL     OW 6742   2.159   0.035   3.895
 1799SOL    HW1 6743   2.208   0.119   3.874
 1799SOL    HW2 6744   2.221  -0.030   3.940
 1800SOL     OW 6745   2.797   0.236   4.204
 1800SOL    HW1 6746   2.749   0.277   4.126
 1800SOL    HW2 6747   2.896   0.234   4.185
 1801SOL     OW 6748   3.089   1.570   4.517
 1801SOL    HW1 6749   3.110   1.644   4.452
 1801SOL    HW2 6750   3.157   1.570   4.590
 1802SOL     OW 6751   2.321   1.152   4.465
 1802SOL    HW1 6752   2.250   1.125   4.530
 1802SOL    HW2 6753   2.295   1.124   4.372
 1803SOL     OW 6754   2.894   0.549   3.740
 1803SOL    HW1 6755   2.853   0.631   3.701
 1803SOL    HW2 6756   2.958   0.575   3.813
 1804SOL     OW 6757   2.423   0.222   4.871
 1804SOL    HW1 6758   2.461   0.138   4.908
 1804SOL    HW2 6759   2.335   0.241   4.915
 1805SOL     OW 6760   2.728   0.454   4.366
 1805SOL    HW1 6761   2.696   0.526   4.304
 1805SOL    HW2 6762   2.752   0.373   4.313
 1806SOL     OW 6763   2.879   0.039   4.477
 1806SOL    HW1 6764   2.807   0.044   4.408
 1806SOL    HW2 6765   2.855  -0.030   4.546
 1807SOL     OW 6766   3.291   1.173   4.591
 1807SOL    HW1 6767   3.236   1.089   4.584
 1807SOL    HW2 6768   3.317   1.202   4.499
 1808SOL     OW 6769   3.328   0.590   4.716
 1808SOL    HW1 6770   3.298   0.495   4.723
 1808SOL    HW2 6771   3.401   0.606   4.782
 1809SOL     OW 6772   3.719   0.833   4.101
 1809SOL    HW1 6773   3.761   0.769   4.165
 1809SOL    HW2 6774   3.681   0.782   4.023
 1810SOL     OW 6775   2.350   1.385   3.898
 1810SOL    HW1 6776   2.263   1.370   3.945
 1810SOL    HW2 6777   2.333   1.411   3.803
 1811SOL     OW 6778   3.526   1.280   4.381
 1811SOL    HW1 6779   3.625   1.288   4.395
 1811SOL    HW2 6780   3.481   1.364   4.412
 1812SOL     OW 6781   3.252   0.575   3.802
 1812SOL    HW1 6782   3.198   0.554   3.883
 1812SOL    HW2 6783   3.343   0.534   3.811
 1813SOL     OW 6784   2.389   0.256   4.052
 1813SOL    HW1 6785   2.416   0.197   3.977
 1813SOL    HW2 6786   2.389   0.351   4.021
 1814SOL     OW 6787   2.973   1.195   4.824
 1814SOL    HW1 6788   2.933   1.239   4.905
 1814SOL    HW2 6789   2.932   1.232   4.741
 1815SOL     OW 6790   2.567   1.050   4.092
 1815SOL    HW1 6791   2.553   1.057   4.191
 1815SOL    HW2 6792   2.651   0.999   4.074
 1816SOL     OW 6793   2.272   0.813   4.975
 1816SOL    HW1 6794   2.358   0.825   5.025
 1816SOL    HW2 6795   2.230   0.726   5.002
 1817SOL     OW 6796   3.136   0.386   4.986
 1817SOL    HW1 6797   3.157   0.460   5.050
 1817SOL    HW2 6798   3.047   0.403   4.943
 1818SOL     OW 6799   2.229   1.100   4.225
 1818SOL    HW1 6800   2.222   1.183   4.169
 1818SOL    HW2 6801   2.233   1.020   4.165
 1819SOL     OW 6802   2.428   0.537   4.589
 1819SOL    HW1 6803   2.440   0.603   4.515
 1819SOL    HW2 6804   2.474   0.571   4.672
 1820SOL     OW 6805   3.114   1.348   4.112
 1820SOL    HW1 6806   3.164   1.425   4.152
 1820SOL    HW2 6807   3.019   1.350   4.144
 1821SOL     OW 6808   3.134   1.445   4.866
 1821SOL    HW1 6809   3.181   1.458   4.953
 1821SOL    HW2 6810   3.068   1.371   4.875
 1822SOL     OW 6811   3.444   0.639   4.196
 1822SOL    HW1 6812   3.413   0.700   4.269
 1822SOL    HW2 6813   3.494   0.691   4.127
 1823SOL     OW 6814   2.216   1.510   5.053
 1823SOL    HW1 6815   2.195   1.466   4.966
 1823SOL    HW2 6816   2.313   1.536   5.056
 1824SOL     OW 6817   2.435   0.870   4.753
 1824SOL    HW1 6818   2.479   0.959   4.744
 1824SOL    HW2 6819   2.372   0.870   4.830
 1825SOL     OW 6820   3.222   0.862   4.769
 1825SOL    HW1 6821   3.147   0.862   4.703
 1825SOL    HW2 6822   3.259   0.770   4.778
 1826SOL     OW 6823   3.071   0.525   3.999
 1826SOL    HW1 6824   3.084   0.441   4.053
 1826SOL    HW2 6825   3.042   0.599   4.059
 1827SOL     OW 6826   2.169   0.213   4.955
 1827SOL    HW1 6827   2.146   0.250   5.045
 1827SOL    HW2 6828   2.139   0.118   4.949
 1828SOL     OW 6829   1.899   1.310   5.006
 1828SOL    HW1 6830   1.952   1.261   5.074
 1828SOL    HW2 6831   1.921   1.408   5.011
 1829SOL     OW 6832   2.594   0.634   4.788
 1829SOL    HW1 6833   2.653   0.608   4.712
 1829SOL    HW2 6834   2.566   0.730   4.777
 1830SOL     OW 6835   2.169   0.063   4.342
 1830SOL    HW1 6836   2.158   0.157   4.375
 1830SOL    HW2 6837   2.164   0.000   4.419
 1831SOL     OW 6838   3.484   0.367   4.098
 1831SOL    HW1 6839   3.486   0.291   4.162
 1831SOL    HW2 6840   3.436   0.444   4.138
 1832SOL     OW 6841   2.885   0.766   4.690
 1832SOL    HW1 6842   2.900   0.787   4.786
 1832SOL    HW2 6843   2.855   0.671   4.681
 1833SOL     OW 6844   3.402   0.274   3.849
 1833SOL    HW1 6845   3.341   0.199   3.872
 1833SOL    HW2 6846   3.424   0.326   3.932
 1834SOL     OW 6847   3.165   0.838   3.766
 1834SOL    HW1 6848   3.199   0.745   3.781
 1834SOL    HW2 6849   3.183   0.865   3.671
 1835SOL     OW 6850   2.930   1.333   4.573
 1835SOL    HW1 6851   2.937   1.249   4.518
 1835SOL    HW2 6852   2.992   1.402   4.537
 1836SOL     OW 6853   2.181   0.810   4.673
 1836SOL    HW1 6854   2.274   0.846   4.678
 1836SOL    HW2 6855   2.175   0.725   4.725
 1837SOL     OW 6856   2.201   0.509   4.730
 1837SOL    HW1 6857   2.149   0.426   4.713
 1837SOL    HW2 6858   2.278   0.514   4.666
 1838SOL     OW 6859   3.022   0.207   5.201
 1838SOL    HW1 6860   3.022   0.271   5.278
 1838SOL    HW2 6861   3.050   0.255   5.118
 1839SOL     OW 6862   1.870   1.326   3.924
 1839SOL    HW1 6863   1.777   1.347   3.893
 1839SOL    HW2 6864   1.880   1.227   3.937
 1840SOL     OW 6865   1.950   1.801   4.651
 1840SOL    HW1 6866   1.908   1.715   4.624
 1840SOL    HW2 6867   2.044   1.804   4.617
 1841SOL     OW 6868   2.366   1.568   4.634
 1841SOL    HW1 6869   2.432   1.642   4.643
 1841SOL    HW2 6870   2.410   1.489   4.592
 1842SOL     OW 6871   2.864   0.796   4.962
 1842SOL    HW1 6872   2.905   0.764   5.048
 1842SOL    HW2 6873   2.768   0.769   4.959
 1843SOL     OW 6874   1.902   0.544   4.838
 1843SOL    HW1 6875   1.987   0.511   4.797
 1843SOL    HW2 6876   1.915   0.559   4.936
 1844SOL     OW 6877   2.677   0.572   4.049
 1844SOL    HW1 6878   2.684   0.483   4.003
 1844SOL    HW2 6879   2.583   0.606   4.041
 1845SOL     OW 6880   3.519   0.604   4.930
 1845SOL    HW1 6881   3.481   0.535   4.992
 1845SOL    HW2 6882   3.601   0.568   4.886
 1846SOL     OW 6883   2.533   0.464   4.993
 1846SOL    HW1 6884   2.499   0.375   4.963
 1846SOL    HW2 6885   2.559   0.518   4.913
 1847SOL     OW 6886   2.792   1.678   5.189
 1847SOL    HW1 6887   2.768   1.660   5.094
 1847SOL    HW2 6888   2.822   1.772   5.199
 1848SOL     OW 6889   2.335   0.500   3.915
 1848SOL    HW1 6890   2.396   0.580   3.919
 1848SOL    HW2 6891   2.240   0.531   3.922
 1849SOL     OW 6892   3.209   1.059   4.958
 1849SOL    HW1 6893   3.233   0.996   4.884
 1849SOL    HW2 6894   3.119   1.099   4.940
 1850SOL     OW 6895   3.164   0.855   4.033
 1850SOL    HW1 6896   3.078   0.824   4.075
 1850SOL    HW2 6897   3.160   0.841   3.934
 1851SOL     OW 6898   3.621   1.747   4.878
 1851SOL    HW1 6899   3.682   1.777   4.805
 1851SOL    HW2 6900   3.583   1.658   4.856
 1852SOL     OW 6901   3.114   1.731   4.852
 1852SOL    HW1 6902   3.198   1.736   4.798
 1852SOL    HW2 6903   3.091   1.635   4.870
 1853SOL     OW 6904   1.945   1.258   4.746
 1853SOL    HW1 6905   1.940   1.257   4.846
 1853SOL    HW2 6906   1.862   1.217   4.708
 1854SOL     OW 6907   3.588   0.135   4.247
 1854SOL    HW1 6908   3.661   0.118   4.180
 1854SOL    HW2 6909   3.557   0.048   4.285
 1855SOL     OW 6910   3.142   0.927   4.396
 1855SOL    HW1 6911   3.202   0.846   4.398
 1855SOL    HW2 6912   3.182   0.996   4.336
 1856SOL     OW 6913   2.534   1.616   3.878
 1856SOL    HW1 6914   2.543   1.626   3.779
 1856SOL    HW2 6915   2.494   1.527   3.899
 1857SOL     OW 6916   3.512   1.720   5.118
 1857SOL    HW1 6917   3.565   1.730   5.034
 1857SOL    HW2 6918   3.485   1.810   5.152
 1858SOL     OW 6919   3.703   0.175   4.687
 1858SOL    HW1 6920   3.742   0.090   4.651
 1858SOL    HW2 6921   3.605   0.177   4.668
 1859SOL     OW 6922   2.125   0.326   4.444
 1859SOL    HW1 6923   2.046   0.377   4.410
 1859SOL    HW2 6924   2.116   0.311   4.542
 1860SOL     OW 6925   2.684   1.002   5.096
 1860SOL    HW1 6926   2.724   1.001   5.004
 1860SOL    HW2 6927   2.694   1.094   5.136
 1861SOL     OW 6928   2.778   0.910   4.015
 1861SOL    HW1 6929   2.841   0.948   3.947
 1861SOL    HW2 6930   2.818   0.827   4.054
 1862SOL     OW 6931   3.366   1.607   3.768
 1862SOL    HW1 6932   3.274   1.644   3.775
 1862SOL    HW2 6933   3.404   1.627   3.678
 1863SOL     OW 6934   2.901   1.098   4.420
 1863SOL    HW1 6935   2.831   1.051   4.474
 1863SOL    HW2 6936   2.960   1.030   4.377
 1864SOL     OW 6937   2.876   0.236   4.695
 1864SOL    HW1 6938   2.868   0.200   4.602
 1864SOL    HW2 6939   2.874   0.160   4.760
 1865SOL     OW 6940   2.452   1.487   4.215
 1865SOL    HW1 6941   2.494   1.429   4.145
 1865SOL    HW2 6942   2.408   1.566   4.171
 1866SOL     OW 6943   3.571   0.385   5.105
 1866SOL    HW1 6944   3.644   0.454   5.109
 1866SOL    HW2 6945   3.599   0.310   5.046
 1867SOL     OW 6946   2.117   1.348   4.014
 1867SOL    HW1 6947   2.021   1.349   3.987
 1867SOL    HW2 6948   2.129   1.401   4.098
 1868SOL     OW 6949   1.937   0.345   3.757
 1868SOL    HW1 6950   1.845   0.317   3.728
 1868SOL    HW2 6951   1.968   0.422   3.701
 1869SOL     OW 6952   1.934   0.166   4.042
 1869SOL    HW1 6953   1.917   0.249   3.988
 1869SOL    HW2 6954   2.024   0.129   4.020
 1870SOL     OW 6955   3.045   1.335   3.843
 1870SOL    HW1 6956   2.946   1.324   3.845
 1870SOL    HW2 6957   3.079   1.350   3.936
 1871SOL     OW 6958   3.355   1.767   4.683
 1871SOL    HW1 6959   3.388   1.831   4.614
 1871SOL    HW2 6960   3.421   1.761   4.758
 1872SOL     OW 6961   3.536   0.883   4.978
 1872SOL    HW1 6962   3.509   0.794   4.941
 1872SOL    HW2 6963   3.537   0.951   4.905
 1873SOL     OW 6964   3.087   0.325   4.173
 1873SOL    HW1 6965   3.152   0.251   4.162
 1873SOL    HW2 6966   3.107   0.375   4.257
 1874SOL     OW 6967   2.456   0.745   4.376
 1874SOL    HW1 6968   2.506   0.830   4.357
 1874SOL    HW2 6969   2.368   0.747   4.328
 1875SOL     OW 6970   2.721   1.374   3.740
 1875SOL    HW1 6971   2.675   1.389   3.828
 1875SOL    HW2 6972   2.765   1.459   3.710
 1876SOL     OW 6973   2.523   1.790   4.677
 1876SOL    HW1 6974   2.477   1.878   4.664
 1876SOL    HW2 6975   2.622   1.802   4.670
 1877SOL     OW 6976   2.721   0.956   4.585
 1877SOL    HW1 6977   2.775   0.887   4.633
 1877SOL    HW2 6978   2.689   1.025   4.651
 1878SOL     OW 6979   2.945   0.984   3.811
 1878SOL    HW1 6980   2.922   1.037   3.729
 1878SOL    HW2 6981   3.026   0.928   3.792
 1879SOL     OW 6982   3.723   1.569   4.575
 1879SOL    HW1 6983   3.652   1.557   4.505
 1879SOL    HW2 6984   3.724   1.490   4.635
 1880SOL     OW 6985   1.941   1.240   4.377
 1880SOL    HW1 6986   1.940   1.193   4.465
 1880SOL    HW2 6987   2.023   1.212   4.326
 1881SOL     OW 6988   3.686   0.192   4.951
 1881SOL    HW1 6989   3.682   0.102   4.995
 1881SOL    HW2 6990   3.689   0.181   4.852
 1882SOL     OW 6991   2.290   0.424   4.244
 1882SOL    HW1 6992   2.320   0.352   4.182
 1882SOL    HW2 6993   2.251   0.384   4.327
 1883SOL     OW 6994   3.567   1.487   4.828
 1883SOL    HW1 6995   3.474   1.462   4.801
 1883SOL    HW2 6996   3.593   1.437   4.910
 1884SOL     OW 6997   2.674   1.586   4.411
 1884SOL    HW1 6998   2.706   1.596   4.317
 1884SOL    HW2 6999   2.595   1.524   4.413
 1885SOL     OW 7000   3.286   0.214   4.836
 1885SOL    HW1 7001   3.338   0.149   4.891
 1885SOL    HW2 7002   3.237   0.277   4.897
 1886SOL     OW 7003   2.863   0.034   4.878
 1886SOL    HW1 7004   2.800  -0.038   4.847
 1886SOL    HW2 7005   2.956  -0.002   4.878
 1887SOL     OW 7006   2.632   1.330   4.025
 1887SOL    HW1 7007   2.586   1.243   4.042
 1887SOL    HW2 7008   2.723   1.327   4.066
 1888SOL     OW 7009   3.214   0.052   3.892
 1888SOL    HW1 7010   3.249   0.011   3.808
 1888SOL    HW2 7011   3.124   0.014   3.912
 1889SOL     OW 7012   3.162   0.453   4.415
 1889SOL    HW1 7013   3.103   0.533   4.419
 1889SOL    HW2 7014   3.177   0.418   4.508
 1890SOL     OW 7015   3.455   0.221   4.606
 1890SOL    HW1 7016   3.371   0.220   4.660
 1890SOL    HW2 7017   3.457   0.304   4.550
 1891SOL     OW 7018   1.901   1.077   4.024
 1891SOL    HW1 7019   2.000   1.066   4.015
 1891SOL    HW2 7020   1.861   0.991   4.056
 1892SOL     OW 7021   2.737   1.646   4.061
 1892SOL    HW1 7022   2.660   1.611   4.007
 1892SOL    HW2 7023   2.705   1.717   4.123
 1893SOL     OW 7024   2.087   2.137   0.996
 1893SOL    HW1 7025   2.122   2.120   1.088
 1893SOL    HW2 7026   1.999   2.092   0.984
 1894SOL     OW 7027   1.881   2.230   0.647
 1894SOL    HW1 7028   1.799   2.273   0.686
 1894SOL    HW2 7029   1.853   2.157   0.584
 1895SOL     OW 7030   2.431   3.137   1.165
 1895SOL    HW1 7031   2.338   3.130   1.128
 1895SOL    HW2 7032   2.442   3.226   1.209
 1896SOL     OW 7033   2.997   2.565   0.717
 1896SOL    HW1 7034   3.054   2.643   0.692
 1896SOL    HW2 7035   2.937   2.591   0.793
 1897SOL     OW 7036   3.617   2.469   0.231
 1897SOL    HW1 7037   3.605   2.456   0.132
 1897SOL    HW2 7038   3.587   2.388   0.280
 1898SOL     OW 7039   2.630   3.006   1.023
 1898SOL    HW1 7040   2.552   3.023   1.083
 1898SOL    HW2 7041   2.664   3.093   0.987
 1899SOL     OW 7042   2.712   2.660   1.823
 1899SOL    HW1 7043   2.708   2.736   1.888
 1899SOL    HW2 7044   2.734   2.696   1.732
 1900SOL     OW 7045   2.547   2.874   0.665
 1900SOL    HW1 7046   2.616   2.858   0.735
 1900SOL    HW2 7047   2.474   2.931   0.703
 1901SOL     OW 7048   2.548   3.023   1.803
 1901SOL    HW1 7049   2.608   3.102   1.817
 1901SOL    HW2 7050   2.462   3.054   1.762
 1902SOL     OW 7051   3.322   3.367   1.339
 1902SOL    HW1 7052   3.346   3.461   1.365
 1902SOL    HW2 7053   3.306   3.313   1.421
 1903SOL     OW 7054   2.300   2.254   1.499
 1903SOL    HW1 7055   2.382   2.198   1.508
 1903SOL    HW2 7056   2.219   2.196   1.503
 1904SOL     OW 7057   3.465   2.309   0.737
 1904SOL    HW1 7058   3.391   2.355   0.687
 1904SOL    HW2 7059   3.516   2.377   0.790
 1905SOL     OW 7060   2.093   3.575   0.483
 1905SOL    HW1 7061   2.127   3.652   0.537
 1905SOL    HW2 7062   2.137   3.575   0.393
 1906SOL     OW 7063   2.989   3.203   1.690
 1906SOL    HW1 7064   3.036   3.203   1.778
 1906SOL    HW2 7065   2.941   3.116   1.679
 1907SOL     OW 7066   2.092   3.296   0.538
 1907SOL    HW1 7067   2.066   3.392   0.538
 1907SOL    HW2 7068   2.021   3.242   0.583
 1908SOL     OW 7069   2.482   3.648   1.439
 1908SOL    HW1 7070   2.390   3.631   1.474
 1908SOL    HW2 7071   2.510   3.740   1.465
 1909SOL     OW 7072   2.468   2.826   0.123
 1909SOL    HW1 7073   2.475   2.910   0.069
 1909SOL    HW2 7074   2.514   2.839   0.211
 1910SOL     OW 7075   3.456   1.976   1.480
 1910SOL    HW1 7076   3.438   2.043   1.408
 1910SOL    HW2 7077   3.453   2.022   1.569
 1911SOL     OW 7078   1.984   2.505   0.563
 1911SOL    HW1 7079   1.939   2.417   0.580
 1911SOL    HW2 7080   1.983   2.559   0.647
 1912SOL     OW 7081   3.704   3.629   0.359
 1912SOL    HW1 7082   3.758   3.600   0.439
 1912SOL    HW2 7083   3.734   3.719   0.330
 1913SOL     OW 7084   1.889   3.458   0.117
 1913SOL    HW1 7085   1.870   3.362   0.138
 1913SOL    HW2 7086   1.856   3.516   0.192
 1914SOL     OW 7087   3.551   2.784   0.612
 1914SOL    HW1 7088   3.646   2.755   0.620
 1914SOL    HW2 7089   3.543   2.849   0.537
 1915SOL     OW 7090   1.975   2.599   1.597
 1915SOL    HW1 7091   2.063   2.586   1.642
 1915SOL    HW2 7092   1.962   2.696   1.575
 1916SOL     OW 7093   3.155   3.090   1.423
 1916SOL    HW1 7094   3.192   3.017   1.365
 1916SOL    HW2 7095   3.207   3.095   1.508
 1917SOL     OW 7096   2.671   1.866   0.502
 1917SOL    HW1 7097   2.711   1.957   0.493
 1917SOL    HW2 7098   2.571   1.874   0.508
 1918SOL     OW 7099   3.387   2.861   0.190
 1918SOL    HW1 7100   3.324   2.785   0.203
 1918SOL    HW2 7101   3.435   2.879   0.276
 1919SOL     OW 7102   3.049   3.654   1.616
 1919SOL    HW1 7103   3.073   3.714   1.540
 1919SOL    HW2 7104   3.056   3.559   1.586
 1920SOL     OW 7105   2.179   2.113   1.801
 1920SOL    HW1 7106   2.250   2.184   1.807
 1920SOL    HW2 7107   2.091   2.152   1.829
 1921SOL     OW 7108   3.328   3.279   0.953
 1921SOL    HW1 7109   3.269   3.285   1.033
 1921SOL    HW2 7110   3.313   3.191   0.907
 1922SOL     OW 7111   2.460   2.591   0.270
 1922SOL    HW1 7112   2.484   2.660   0.202
 1922SOL    HW2 7113   2.382   2.624   0.324
 1923SOL     OW 7114   3.143   2.207   0.944
 1923SOL    HW1 7115   3.057   2.157   0.931
 1923SOL    HW2 7116   3.205   2.153   1.000
 1924SOL     OW 7117   2.669   2.467   1.465
 1924SOL    HW1 7118   2.622   2.464   1.554
 1924SOL    HW2 7119   2.618   2.412   1.399
 1925SOL     OW 7120   3.256   2.331   1.674
 1925SOL    HW1 7121   3.236   2.374   1.762
 1925SOL    HW2 7122   3.334   2.269   1.683
 1926SOL     OW 7123   2.835   2.752   1.572
 1926SOL    HW1 7124   2.881   2.668   1.543
 1926SOL    HW2 7125   2.779   2.786   1.497
 1927SOL     OW 7126   2.853   2.272   1.242
 1927SOL    HW1 7127   2.776   2.306   1.296
 1927SOL    HW2 7128   2.819   2.221   1.163
 1928SOL     OW 7129   2.903   2.563   0.429
 1928SOL    HW1 7130   2.929   2.559   0.525
 1928SOL    HW2 7131   2.818   2.512   0.415
 1929SOL     OW 7132   1.992   3.683   1.571
 1929SOL    HW1 7133   1.982   3.668   1.670
 1929SOL    HW2 7134   1.906   3.719   1.535
 1930SOL     OW 7135   2.727   2.210   0.195
 1930SOL    HW1 7136   2.786   2.273   0.146
 1930SOL    HW2 7137   2.746   2.116   0.166
 1931SOL     OW 7138   3.581   2.447   1.831
 1931SOL    HW1 7139   3.555   2.536   1.795
 1931SOL    HW2 7140   3.579   2.379   1.758
 1932SOL     OW 7141   3.224   3.006   0.545
 1932SOL    HW1 7142   3.307   2.977   0.497
 1932SOL    HW2 7143   3.175   3.073   0.489
 1933SOL     OW 7144   2.412   2.058   0.885
 1933SOL    HW1 7145   2.407   2.053   0.985
 1933SOL    HW2 7146   2.414   2.154   0.856
 1934SOL     OW 7147   2.213   3.663   0.853
 1934SOL    HW1 7148   2.263   3.577   0.859
 1934SOL    HW2 7149   2.278   3.740   0.850
 1935SOL     OW 7150   3.657   2.928   0.873
 1935SOL    HW1 7151   3.595   2.913   0.797
 1935SOL    HW2 7152   3.605   2.939   0.958
 1936SOL     OW 7153   3.089   3.412   1.506
 1936SOL    HW1 7154   3.095   3.335   1.570
 1936SOL    HW2 7155   3.037   3.386   1.426
 1937SOL     OW 7156   2.183   2.805   0.242
 1937SOL    HW1 7157   2.265   2.844   0.200
 1937SOL    HW2 7158   2.156   2.723   0.193
 1938SOL     OW 7159   3.320   2.597   0.728
 1938SOL    HW1 7160   3.315   2.532   0.803
 1938SOL    HW2 7161   3.400   2.656   0.741
 1939SOL     OW 7162   2.323   3.128   1.727
 1939SOL    HW1 7163   2.273   3.129   1.641
 1939SOL    HW2 7164   2.260   3.110   1.803
 1940SOL     OW 7165   2.973   3.638   0.237
 1940SOL    HW1 7166   2.913   3.576   0.287
 1940SOL    HW2 7167   3.004   3.594   0.152
 1941SOL     OW 7168   2.064   2.147   1.498
 1941SOL    HW1 7169   1.984   2.207   1.485
 1941SOL    HW2 7170   2.054   2.098   1.584
 1942SOL     OW 7171   3.494   3.239   0.081
 1942SOL    HW1 7172   3.462   3.333   0.071
 1942SOL    HW2 7173   3.418   3.176   0.069
 1943SOL     OW 7174   2.326   3.605   0.323
 1943SOL    HW1 7175   2.359   3.644   0.409
 1943SOL    HW2 7176   2.402   3.598   0.258
 1944SOL     OW 7177   3.262   1.969   0.426
 1944SOL    HW1 7178   3.238   1.932   0.336
 1944SOL    HW2 7179   3.361   1.985   0.430
 1945SOL     OW 7180   2.111   3.647   1.241
 1945SOL    HW1 7181   2.168   3.582   1.291
 1945SOL    HW2 7182   2.095   3.614   1.148
 1946SOL     OW 7183   2.802   3.560   0.904
 1946SOL    HW1 7184   2.882   3.503   0.925
 1946SOL    HW2 7185   2.753   3.520   0.827
 1947SOL     OW 7186   2.244   2.562   0.480
 1947SOL    HW1 7187   2.289   2.472   0.477
 1947SOL    HW2 7188   2.150   2.551   0.513
 1948SOL     OW 7189   3.409   2.084   1.729
 1948SOL    HW1 7190   3.404   2.121   1.821
 1948SOL    HW2 7191   3.337   2.015   1.717
 1949SOL     OW 7192   2.643   2.126   1.749
 1949SOL    HW1 7193   2.710   2.065   1.792
 1949SOL    HW2 7194   2.570   2.145   1.814
 1950SOL     OW 7195   2.750   3.376   1.195
 1950SOL    HW1 7196   2.727   3.351   1.101
 1950SOL    HW2 7197   2.811   3.307   1.234
 1951SOL     OW 7198   3.213   2.452   1.433
 1951SOL    HW1 7199   3.241   2.409   1.518
 1951SOL    HW2 7200   3.238   2.548   1.434
 1952SOL     OW 7201   2.784   2.365   0.899
 1952SOL    HW1 7202   2.759   2.356   0.803
 1952SOL    HW2 7203   2.832   2.283   0.930
 1953SOL     OW 7204   3.296   3.050   0.041
 1953SOL    HW1 7205   3.328   2.974   0.098
 1953SOL    HW2 7206   3.204   3.077   0.071
 1954SOL     OW 7207   2.797   2.098   0.480
 1954SOL    HW1 7208   2.749   2.139   0.402
 1954SOL    HW2 7209   2.896   2.096   0.461
 1955SOL     OW 7210   2.938   2.545   1.464
 1955SOL    HW1 7211   2.858   2.484   1.467
 1955SOL    HW2 7212   3.019   2.492   1.440
 1956SOL     OW 7213   3.089   3.432   0.793
 1956SOL    HW1 7214   3.110   3.506   0.728
 1956SOL    HW2 7215   3.157   3.432   0.866
 1957SOL     OW 7216   2.321   3.014   0.741
 1957SOL    HW1 7217   2.250   2.987   0.806
 1957SOL    HW2 7218   2.295   2.986   0.648
 1958SOL     OW 7219   2.894   2.411   0.016
 1958SOL    HW1 7220   2.853   2.493  -0.023
 1958SOL    HW2 7221   2.958   2.437   0.089
 1959SOL     OW 7222   1.940   2.418   1.386
 1959SOL    HW1 7223   2.032   2.417   1.345
 1959SOL    HW2 7224   1.934   2.492   1.453
 1960SOL     OW 7225   2.423   2.084   1.147
 1960SOL    HW1 7226   2.461   2.000   1.184
 1960SOL    HW2 7227   2.335   2.103   1.191
 1961SOL     OW 7228   2.728   2.316   0.642
 1961SOL    HW1 7229   2.696   2.388   0.580
 1961SOL    HW2 7230   2.752   2.235   0.589
 1962SOL     OW 7231   2.879   1.901   0.753
 1962SOL    HW1 7232   2.807   1.906   0.684
 1962SOL    HW2 7233   2.855   1.832   0.822
 1963SOL     OW 7234   3.291   3.035   0.867
 1963SOL    HW1 7235   3.236   2.951   0.860
 1963SOL    HW2 7236   3.317   3.064   0.775
 1964SOL     OW 7237   3.328   2.452   0.992
 1964SOL    HW1 7238   3.298   2.357   0.999
 1964SOL    HW2 7239   3.401   2.468   1.058
 1965SOL     OW 7240   3.719   2.695   0.377
 1965SOL    HW1 7241   3.761   2.631   0.441
 1965SOL    HW2 7242   3.681   2.644   0.299
 1966SOL     OW 7243   3.252   2.437   0.078
 1966SOL    HW1 7244   3.198   2.416   0.159
 1966SOL    HW2 7245   3.343   2.396   0.087
 1967SOL     OW 7246   3.616   3.085   1.588
 1967SOL    HW1 7247   3.707   3.046   1.575
 1967SOL    HW2 7248   3.624   3.181   1.612
 1968SOL     OW 7249   2.926   3.209   1.340
 1968SOL    HW1 7250   2.846   3.186   1.395
 1968SOL    HW2 7251   3.009   3.183   1.389
 1969SOL     OW 7252   3.454   3.491   1.625
 1969SOL    HW1 7253   3.481   3.525   1.535
 1969SOL    HW2 7254   3.533   3.453   1.671
 1970SOL     OW 7255   2.973   3.057   1.100
 1970SOL    HW1 7256   2.933   3.101   1.181
 1970SOL    HW2 7257   2.932   3.094   1.017
 1971SOL     OW 7258   3.500   2.961   1.079
 1971SOL    HW1 7259   3.505   3.042   1.138
 1971SOL    HW2 7260   3.414   2.963   1.028
 1972SOL     OW 7261   2.777   1.951   1.402
 1972SOL    HW1 7262   2.802   1.931   1.307
 1972SOL    HW2 7263   2.849   2.007   1.444
 1973SOL     OW 7264   2.842   2.978   1.719
 1973SOL    HW1 7265   2.743   2.984   1.729
 1973SOL    HW2 7266   2.865   2.898   1.663
 1974SOL     OW 7267   2.567   2.912   0.368
 1974SOL    HW1 7268   2.553   2.919   0.467
 1974SOL    HW2 7269   2.651   2.861   0.350
 1975SOL     OW 7270   2.272   2.675   1.251
 1975SOL    HW1 7271   2.358   2.687   1.301
 1975SOL    HW2 7272   2.230   2.588   1.278
 1976SOL     OW 7273   3.136   2.248   1.262
 1976SOL    HW1 7274   3.157   2.322   1.326
 1976SOL    HW2 7275   3.047   2.265   1.219
 1977SOL     OW 7276   2.229   2.962   0.501
 1977SOL    HW1 7277   2.222   3.045   0.445
 1977SOL    HW2 7278   2.233   2.882   0.441
 1978SOL     OW 7279   2.428   2.399   0.865
 1978SOL    HW1 7280   2.440   2.465   0.791
 1978SOL    HW2 7281   2.474   2.433   0.948
 1979SOL     OW 7282   3.114   3.210   0.388
 1979SOL    HW1 7283   3.164   3.287   0.428
 1979SOL    HW2 7284   3.019   3.212   0.420
 1980SOL     OW 7285   3.134   3.307   1.142
 1980SOL    HW1 7286   3.181   3.320   1.229
 1980SOL    HW2 7287   3.068   3.233   1.151
 1981SOL     OW 7288   3.444   2.501   0.472
 1981SOL    HW1 7289   3.413   2.562   0.545
 1981SOL    HW2 7290   3.494   2.553   0.403
 1982SOL     OW 7291   2.216   3.372   1.329
 1982SOL    HW1 7292   2.195   3.328   1.242
 1982SOL    HW2 7293   2.313   3.398   1.332
 1983SOL     OW 7294   2.264   2.613   1.598
 1983SOL    HW1 7295   2.332   2.668   1.551
 1983SOL    HW2 7296   2.304   2.525   1.625
 1984SOL     OW 7297   3.449   2.641   1.670
 1984SOL    HW1 7298   3.357   2.679   1.665
 1984SOL    HW2 7299   3.509   2.688   1.605
 1985SOL     OW 7300   2.875   1.967   1.770
 1985SOL    HW1 7301   2.881   2.052   1.718
 1985SOL    HW2 7302   2.907   1.891   1.713
 1986SOL     OW 7303   2.366   1.912   1.740
 1986SOL    HW1 7304   2.324   1.855   1.670
 1986SOL    HW2 7305   2.300   1.981   1.772
 1987SOL     OW 7306   2.435   2.732   1.029
 1987SOL    HW1 7307   2.479   2.821   1.020
 1987SOL    HW2 7308   2.372   2.732   1.106
 1988SOL     OW 7309   3.222   2.724   1.045
 1988SOL    HW1 7310   3.147   2.724   0.979
 1988SOL    HW2 7311   3.259   2.632   1.054
 1989SOL     OW 7312   3.071   2.387   0.275
 1989SOL    HW1 7313   3.084   2.303   0.329
 1989SOL    HW2 7314   3.042   2.461   0.335
 1990SOL     OW 7315   2.169   2.075   1.231
 1990SOL    HW1 7316   2.146   2.112   1.321
 1990SOL    HW2 7317   2.139   1.980   1.225
 1991SOL     OW 7318   2.594   2.496   1.064
 1991SOL    HW1 7319   2.653   2.470   0.988
 1991SOL    HW2 7320   2.566   2.592   1.053
 1992SOL     OW 7321   3.590   2.797   1.854
 1992SOL    HW1 7322   3.544   2.790   1.765
 1992SOL    HW2 7323   3.528   2.841   1.920
 1993SOL     OW 7324   3.484   2.229   0.374
 1993SOL    HW1 7325   3.486   2.153   0.438
 1993SOL    HW2 7326   3.436   2.306   0.414
 1994SOL     OW 7327   2.885   2.628   0.966
 1994SOL    HW1 7328   2.900   2.649   1.062
 1994SOL    HW2 7329   2.855   2.533   0.957
 1995SOL     OW 7330   2.842   3.435   1.700
 1995SOL    HW1 7331   2.822   3.479   1.612
 1995SOL    HW2 7332   2.881   3.344   1.684
 1996SOL     OW 7333   2.212   2.760   1.804
 1996SOL    HW1 7334   2.288   2.804   1.852
 1996SOL    HW2 7335   2.247   2.713   1.722
 1997SOL     OW 7336   3.402   2.136   0.125
 1997SOL    HW1 7337   3.341   2.061   0.148
 1997SOL    HW2 7338   3.424   2.188   0.208
 1998SOL     OW 7339   3.165   2.700   0.042
 1998SOL    HW1 7340   3.199   2.607   0.057
 1998SOL    HW2 7341   3.183   2.727  -0.053
 1999SOL     OW 7342   2.181   2.672   0.949
 1999SOL    HW1 7343   2.274   2.708   0.954
 1999SOL    HW2 7344   2.175   2.587   1.001
 2000SOL     OW 7345   2.201   2.371   1.006
 2000SOL    HW1 7346   2.149   2.288   0.989
 2000SOL    HW2 7347   2.278   2.376   0.942
 2001SOL     OW 7348   3.000   2.242   1.678
 2001SOL    HW1 7349   2.955   2.305   1.742
 2001SOL    HW2 7350   3.093   2.273   1.661
 2002SOL     OW 7351   3.022   2.069   1.477
 2002SOL    HW1 7352   3.022   2.133   1.554
 2002SOL    HW2 7353   3.050   2.117   1.394
 2003SOL     OW 7354   1.950   3.663   0.927
 2003SOL    HW1 7355   1.908   3.577   0.900
 2003SOL    HW2 7356   2.044   3.666   0.893
 2004SOL     OW 7357   2.864   2.658   1.238
 2004SOL    HW1 7358   2.905   2.626   1.324
 2004SOL    HW2 7359   2.768   2.631   1.235
 2005SOL     OW 7360   1.902   2.406   1.114
 2005SOL    HW1 7361   1.987   2.373   1.073
 2005SOL    HW2 7362   1.915   2.421   1.212
 2006SOL     OW 7363   2.051   2.382   1.722
 2006SOL    HW1 7364   2.110   2.342   1.652
 2006SOL    HW2 7365   1.993   2.453   1.681
 2007SOL     OW 7366   3.231   2.812   1.660
 2007SOL    HW1 7367   3.270   2.901   1.680
 2007SOL    HW2 7368   3.241   2.792   1.563
 2008SOL     OW 7369   2.677   2.434   0.325
 2008SOL    HW1 7370   2.684   2.345   0.279
 2008SOL    HW2 7371   2.583   2.468   0.317
 2009SOL     OW 7372   3.519   2.466   1.206
 2009SOL    HW1 7373   3.481   2.397   1.268
 2009SOL    HW2 7374   3.601   2.430   1.162
 2010SOL     OW 7375   2.114   3.426   1.744
 2010SOL    HW1 7376   2.084   3.483   1.820
 2010SOL    HW2 7377   2.107   3.329   1.770
 2011SOL     OW 7378   2.533   2.326   1.269
 2011SOL    HW1 7379   2.499   2.237   1.239
 2011SOL    HW2 7380   2.559   2.380   1.189
 2012SOL     OW 7381   2.792   3.540   1.465
 2012SOL    HW1 7382   2.768   3.522   1.370
 2012SOL    HW2 7383   2.822   3.634   1.475
 2013SOL     OW 7384   3.209   2.921   1.234
 2013SOL    HW1 7385   3.233   2.858   1.160
 2013SOL    HW2 7386   3.119   2.961   1.216
 2014SOL     OW 7387   3.164   2.717   0.309
 2014SOL    HW1 7388   3.078   2.686   0.351
 2014SOL    HW2 7389   3.160   2.703   0.210
 2015SOL     OW 7390   3.114   3.593   1.128
 2015SOL    HW1 7391   3.198   3.598   1.074
 2015SOL    HW2 7392   3.091   3.497   1.146
 2016SOL     OW 7393   2.550   3.524   1.716
 2016SOL    HW1 7394   2.494   3.605   1.725
 2016SOL    HW2 7395   2.602   3.528   1.630
 2017SOL     OW 7396   2.765   1.948   0.133
 2017SOL    HW1 7397   2.816   1.949   0.047
 2017SOL    HW2 7398   2.821   1.906   0.204
 2018SOL     OW 7399   3.588   1.997   0.523
 2018SOL    HW1 7400   3.661   1.980   0.456
 2018SOL    HW2 7401   3.557   1.910   0.561
 2019SOL     OW 7402   3.250   3.435   0.477
 2019SOL    HW1 7403   3.317   3.447   0.403
 2019SOL    HW2 7404   3.210   3.524   0.500
 2020SOL     OW 7405   1.992   3.656   1.851
 2020SOL    HW1 7406   1.951   3.582   1.904
 2020SOL    HW2 7407   2.056   3.707   1.909
 2021SOL     OW 7408   3.142   2.789   0.672
 2021SOL    HW1 7409   3.202   2.708   0.674
 2021SOL    HW2 7410   3.182   2.858   0.612
 2022SOL     OW 7411   2.692   3.135   1.422
 2022SOL    HW1 7412   2.687   3.168   1.517
 2022SOL    HW2 7413   2.606   3.154   1.376
 2023SOL     OW 7414   2.534   3.478   0.154
 2023SOL    HW1 7415   2.543   3.488   0.055
 2023SOL    HW2 7416   2.494   3.389   0.175
 2024SOL     OW 7417   3.512   3.582   1.394
 2024SOL    HW1 7418   3.565   3.592   1.310
 2024SOL    HW2 7419   3.485   3.672   1.428
 2025SOL     OW 7420   3.703   2.037   0.963
 2025SOL    HW1 7421   3.742   1.952   0.927
 2025SOL    HW2 7422   3.605   2.039   0.944
 2026SOL     OW 7423   2.125   2.188   0.720
 2026SOL    HW1 7424   2.046   2.239   0.686
 2026SOL    HW2 7425   2.116   2.173   0.818
 2027SOL     OW 7426   3.056   3.474   0.031
 2027SOL    HW1 7427   3.062   3.381   0.068
 2027SOL    HW2 7428   2.997   3.474  -0.049
 2028SOL     OW 7429   2.684   2.864   1.372
 2028SOL    HW1 7430   2.724   2.863   1.280
 2028SOL    HW2 7431   2.694   2.956   1.412
 2029SOL     OW 7432   2.778   2.772   0.291
 2029SOL    HW1 7433   2.841   2.810   0.223
 2029SOL    HW2 7434   2.818   2.689   0.330
 2030SOL     OW 7435   3.366   3.469   0.044
 2030SOL    HW1 7436   3.274   3.506   0.051
 2030SOL    HW2 7437   3.404   3.489  -0.046
 2031SOL     OW 7438   2.234   3.150   1.490
 2031SOL    HW1 7439   2.221   3.243   1.456
 2031SOL    HW2 7440   2.150   3.098   1.477
 2032SOL     OW 7441   3.476   3.154   1.289
 2032SOL    HW1 7442   3.536   3.157   1.369
 2032SOL    HW2 7443   3.401   3.218   1.302
 2033SOL     OW 7444   2.901   2.960   0.696
 2033SOL    HW1 7445   2.831   2.913   0.750
 2033SOL    HW2 7446   2.960   2.892   0.653
 2034SOL     OW 7447   2.876   2.098   0.971
 2034SOL    HW1 7448   2.868   2.062   0.878
 2034SOL    HW2 7449   2.874   2.022   1.036
 2035SOL     OW 7450   3.571   2.247   1.381
 2035SOL    HW1 7451   3.644   2.316   1.385
 2035SOL    HW2 7452   3.599   2.172   1.322
 2036SOL     OW 7453   2.117   3.210   0.290
 2036SOL    HW1 7454   2.021   3.211   0.263
 2036SOL    HW2 7455   2.129   3.263   0.374
 2037SOL     OW 7456   1.967   2.875   1.726
 2037SOL    HW1 7457   1.890   2.842   1.780
 2037SOL    HW2 7458   2.052   2.845   1.768
 2038SOL     OW 7459   2.534   2.065   1.489
 2038SOL    HW1 7460   2.624   2.049   1.449
 2038SOL    HW2 7461   2.542   2.070   1.588
 2039SOL     OW 7462   3.302   2.718   1.398
 2039SOL    HW1 7463   3.245   2.770   1.335
 2039SOL    HW2 7464   3.398   2.730   1.374
 2040SOL     OW 7465   3.045   3.197   0.119
 2040SOL    HW1 7466   2.946   3.186   0.121
 2040SOL    HW2 7467   3.079   3.212   0.212
 2041SOL     OW 7468   2.475   2.704   1.431
 2041SOL    HW1 7469   2.531   2.785   1.414
 2041SOL    HW2 7470   2.534   2.624   1.434
 2042SOL     OW 7471   3.355   3.629   0.959
 2042SOL    HW1 7472   3.388   3.693   0.890
 2042SOL    HW2 7473   3.421   3.623   1.034
 2043SOL     OW 7474   2.578   2.427   1.708
 2043SOL    HW1 7475   2.597   2.492   1.782
 2043SOL    HW2 7476   2.638   2.347   1.717
 2044SOL     OW 7477   3.312   3.082   1.633
 2044SOL    HW1 7478   3.303   3.072   1.732
 2044SOL    HW2 7479   3.408   3.075   1.607
 2045SOL     OW 7480   2.252   3.603   1.560
 2045SOL    HW1 7481   2.161   3.644   1.558
 2045SOL    HW2 7482   2.245   3.509   1.592
 2046SOL     OW 7483   3.536   2.745   1.254
 2046SOL    HW1 7484   3.509   2.656   1.217
 2046SOL    HW2 7485   3.537   2.813   1.181
 2047SOL     OW 7486   3.087   2.187   0.449
 2047SOL    HW1 7487   3.152   2.113   0.438
 2047SOL    HW2 7488   3.107   2.237   0.533
 2048SOL     OW 7489   2.456   2.607   0.652
 2048SOL    HW1 7490   2.506   2.692   0.633
 2048SOL    HW2 7491   2.368   2.609   0.604
 2049SOL     OW 7492   3.639   2.204   1.642
 2049SOL    HW1 7493   3.622   2.235   1.548
 2049SOL    HW2 7494   3.555   2.167   1.680
 2050SOL     OW 7495   3.592   2.796   1.517
 2050SOL    HW1 7496   3.630   2.887   1.532
 2050SOL    HW2 7497   3.584   2.779   1.418
 2051SOL     OW 7498   2.523   3.652   0.953
 2051SOL    HW1 7499   2.477   3.740   0.940
 2051SOL    HW2 7500   2.622   3.664   0.946
 2052SOL     OW 7501   2.721   2.818   0.861
 2052SOL    HW1 7502   2.775   2.749   0.909
 2052SOL    HW2 7503   2.689   2.887   0.927
 2053SOL     OW 7504   2.945   2.846   0.087
 2053SOL    HW1 7505   2.922   2.899   0.005
 2053SOL    HW2 7506   3.026   2.790   0.068
 2054SOL     OW 7507   3.723   3.431   0.851
 2054SOL    HW1 7508   3.652   3.419   0.781
 2054SOL    HW2 7509   3.724   3.352   0.911
 2055SOL     OW 7510   2.083   3.176   1.844
 2055SOL    HW1 7511   2.018   3.103   1.823
 2055SOL    HW2 7512   2.087   3.190   1.942
 2056SOL     OW 7513   2.534   3.253   1.624
 2056SOL    HW1 7514   2.456   3.203   1.662
 2056SOL    HW2 7515   2.531   3.348   1.655
 2057SOL     OW 7516   3.686   2.054   1.227
 2057SOL    HW1 7517   3.682   1.964   1.271
 2057SOL    HW2 7518   3.689   2.043   1.128
 2058SOL     OW 7519   3.567   3.349   1.104
 2058SOL    HW1 7520   3.474   3.324   1.077
 2058SOL    HW2 7521   3.593   3.299   1.186
 2059SOL     OW 7522   2.179   2.409   1.280
 2059SOL    HW1 7523   2.217   2.350   1.352
 2059SOL    HW2 7524   2.219   2.383   1.192
 2060SOL     OW 7525   3.286   2.076   1.112
 2060SOL    HW1 7526   3.338   2.011   1.167
 2060SOL    HW2 7527   3.237   2.139   1.173
 2061SOL     OW 7528   2.863   1.896   1.154
 2061SOL    HW1 7529   2.800   1.824   1.123
 2061SOL    HW2 7530   2.956   1.860   1.154
 2062SOL     OW 7531   2.480   3.429   1.284
 2062SOL    HW1 7532   2.475   3.511   1.341
 2062SOL    HW2 7533   2.569   3.426   1.239
 2063SOL     OW 7534   3.214   1.914   0.168
 2063SOL    HW1 7535   3.249   1.873   0.084
 2063SOL    HW2 7536   3.124   1.876   0.188
 2064SOL     OW 7537   3.162   2.315   0.691
 2064SOL    HW1 7538   3.103   2.395   0.695
 2064SOL    HW2 7539   3.177   2.280   0.784
 2065SOL     OW 7540   3.455   2.083   0.882
 2065SOL    HW1 7541   3.371   2.082   0.936
 2065SOL    HW2 7542   3.457   2.166   0.826
 2066SOL     OW 7543   1.901   2.939   0.300
 2066SOL    HW1 7544   2.000   2.928   0.291
 2066SOL    HW2 7545   1.861   2.853   0.332
 2067SOL     OW 7546   2.737   3.508   0.337
 2067SOL    HW1 7547   2.660   3.473   0.283
 2067SOL    HW2 7548   2.705   3.579   0.399
 2068SOL     OW 7549   2.092   2.490   1.975
 2068SOL    HW1 7550   1.999   2.488   2.012
 2068SOL    HW2 7551   2.093   2.451   1.883
 2069SOL     OW 7552   2.087   2.137   2.858
 2069SOL    HW1 7553   2.122   2.120   2.950
 2069SOL    HW2 7554   1.999   2.092   2.846
 2070SOL     OW 7555   1.881   2.230   2.509
 2070SOL    HW1 7556   1.799   2.273   2.548
 2070SOL    HW2 7557   1.853   2.157   2.446
 2071SOL     OW 7558   2.431   3.137   3.027
 2071SOL    HW1 7559   2.338   3.130   2.990
 2071SOL    HW2 7560   2.442   3.226   3.071
 2072SOL     OW 7561   3.417   3.373   2.565
 2072SOL    HW1 7562   3.360   3.357   2.646
 2072SOL    HW2 7563   3.358   3.383   2.485
 2073SOL     OW 7564   3.617   2.469   2.093
 2073SOL    HW1 7565   3.605   2.456   1.994
 2073SOL    HW2 7566   3.587   2.388   2.142
 2074SOL     OW 7567   2.630   3.006   2.885
 2074SOL    HW1 7568   2.552   3.023   2.945
 2074SOL    HW2 7569   2.664   3.093   2.849
 2075SOL     OW 7570   2.712   2.660   3.685
 2075SOL    HW1 7571   2.708   2.736   3.750
 2075SOL    HW2 7572   2.734   2.696   3.594
 2076SOL     OW 7573   2.548   3.023   3.665
 2076SOL    HW1 7574   2.608   3.102   3.679
 2076SOL    HW2 7575   2.462   3.054   3.624
 2077SOL     OW 7576   2.197   3.297   2.923
 2077SOL    HW1 7577   2.119   3.266   2.870
 2077SOL    HW2 7578   2.255   3.355   2.866
 2078SOL     OW 7579   3.322   3.367   3.201
 2078SOL    HW1 7580   3.346   3.461   3.227
 2078SOL    HW2 7581   3.306   3.313   3.283
 2079SOL     OW 7582   2.300   2.254   3.361
 2079SOL    HW1 7583   2.382   2.198   3.370
 2079SOL    HW2 7584   2.219   2.196   3.365
 2080SOL     OW 7585   3.465   2.309   2.599
 2080SOL    HW1 7586   3.391   2.355   2.549
 2080SOL    HW2 7587   3.516   2.377   2.652
 2081SOL     OW 7588   2.093   3.575   2.345
 2081SOL    HW1 7589   2.127   3.652   2.399
 2081SOL    HW2 7590   2.137   3.575   2.255
 2082SOL     OW 7591   2.989   3.203   3.552
 2082SOL    HW1 7592   3.036   3.203   3.640
 2082SOL    HW2 7593   2.941   3.116   3.541
 2083SOL     OW 7594   2.092   3.296   2.400
 2083SOL    HW1 7595   2.066   3.392   2.400
 2083SOL    HW2 7596   2.021   3.242   2.445
 2084SOL     OW 7597   2.102   2.953   2.748
 2084SOL    HW1 7598   2.116   2.869   2.800
 2084SOL    HW2 7599   2.047   3.017   2.803
 2085SOL     OW 7600   2.468   2.826   1.985
 2085SOL    HW1 7601   2.475   2.910   1.931
 2085SOL    HW2 7602   2.514   2.839   2.073
 2086SOL     OW 7603   3.456   1.976   3.342
 2086SOL    HW1 7604   3.438   2.043   3.270
 2086SOL    HW2 7605   3.453   2.022   3.431
 2087SOL     OW 7606   3.704   3.629   2.221
 2087SOL    HW1 7607   3.758   3.600   2.301
 2087SOL    HW2 7608   3.734   3.719   2.192
 2088SOL     OW 7609   1.889   3.458   1.979
 2088SOL    HW1 7610   1.870   3.362   2.000
 2088SOL    HW2 7611   1.856   3.516   2.054
 2089SOL     OW 7612   3.551   2.784   2.474
 2089SOL    HW1 7613   3.646   2.755   2.482
 2089SOL    HW2 7614   3.543   2.849   2.399
 2090SOL     OW 7615   3.503   2.970   2.294
 2090SOL    HW1 7616   3.589   2.972   2.242
 2090SOL    HW2 7617   3.517   3.017   2.382
 2091SOL     OW 7618   1.975   2.599   3.459
 2091SOL    HW1 7619   2.063   2.586   3.504
 2091SOL    HW2 7620   1.962   2.696   3.437
 2092SOL     OW 7621   2.475   3.227   2.588
 2092SOL    HW1 7622   2.426   3.140   2.597
 2092SOL    HW2 7623   2.452   3.270   2.501
 2093SOL     OW 7624   3.155   3.090   3.285
 2093SOL    HW1 7625   3.192   3.017   3.227
 2093SOL    HW2 7626   3.207   3.095   3.370
 2094SOL     OW 7627   2.671   1.866   2.364
 2094SOL    HW1 7628   2.711   1.957   2.355
 2094SOL    HW2 7629   2.571   1.874   2.370
 2095SOL     OW 7630   2.059   2.838   3.126
 2095SOL    HW1 7631   2.148   2.793   3.112
 2095SOL    HW2 7632   1.986   2.773   3.107
 2096SOL     OW 7633   3.387   2.861   2.052
 2096SOL    HW1 7634   3.324   2.785   2.065
 2096SOL    HW2 7635   3.435   2.879   2.138
 2097SOL     OW 7636   2.179   2.113   3.663
 2097SOL    HW1 7637   2.250   2.184   3.669
 2097SOL    HW2 7638   2.091   2.152   3.691
 2098SOL     OW 7639   3.328   3.279   2.815
 2098SOL    HW1 7640   3.269   3.285   2.895
 2098SOL    HW2 7641   3.313   3.191   2.769
 2099SOL     OW 7642   3.529   3.576   2.434
 2099SOL    HW1 7643   3.488   3.553   2.346
 2099SOL    HW2 7644   3.511   3.502   2.499
 2100SOL     OW 7645   2.460   2.591   2.132
 2100SOL    HW1 7646   2.484   2.660   2.064
 2100SOL    HW2 7647   2.382   2.624   2.186
 2101SOL     OW 7648   3.143   2.207   2.806
 2101SOL    HW1 7649   3.057   2.157   2.793
 2101SOL    HW2 7650   3.205   2.153   2.862
 2102SOL     OW 7651   3.438   3.524   2.169
 2102SOL    HW1 7652   3.527   3.570   2.172
 2102SOL    HW2 7653   3.417   3.500   2.074
 2103SOL     OW 7654   2.669   2.467   3.327
 2103SOL    HW1 7655   2.622   2.464   3.416
 2103SOL    HW2 7656   2.618   2.412   3.261
 2104SOL     OW 7657   3.256   2.331   3.536
 2104SOL    HW1 7658   3.236   2.374   3.624
 2104SOL    HW2 7659   3.334   2.269   3.545
 2105SOL     OW 7660   2.835   2.752   3.434
 2105SOL    HW1 7661   2.881   2.668   3.405
 2105SOL    HW2 7662   2.779   2.786   3.359
 2106SOL     OW 7663   2.853   2.272   3.104
 2106SOL    HW1 7664   2.776   2.306   3.158
 2106SOL    HW2 7665   2.819   2.221   3.025
 2107SOL     OW 7666   2.903   2.563   2.291
 2107SOL    HW1 7667   2.929   2.559   2.387
 2107SOL    HW2 7668   2.818   2.512   2.277
 2108SOL     OW 7669   1.938   2.673   2.651
 2108SOL    HW1 7670   2.037   2.661   2.660
 2108SOL    HW2 7671   1.914   2.768   2.672
 2109SOL     OW 7672   1.992   3.683   3.433
 2109SOL    HW1 7673   1.982   3.668   3.532
 2109SOL    HW2 7674   1.906   3.719   3.397
 2110SOL     OW 7675   2.727   2.210   2.057
 2110SOL    HW1 7676   2.786   2.273   2.008
 2110SOL    HW2 7677   2.746   2.116   2.028
 2111SOL     OW 7678   3.581   2.447   3.693
 2111SOL    HW1 7679   3.555   2.536   3.657
 2111SOL    HW2 7680   3.579   2.379   3.620
 2112SOL     OW 7681   3.224   3.006   2.407
 2112SOL    HW1 7682   3.307   2.977   2.359
 2112SOL    HW2 7683   3.175   3.073   2.351
 2113SOL     OW 7684   2.412   2.058   2.747
 2113SOL    HW1 7685   2.407   2.053   2.847
 2113SOL    HW2 7686   2.414   2.154   2.718
 2114SOL     OW 7687   2.870   3.318   2.339
 2114SOL    HW1 7688   2.824   3.390   2.287
 2114SOL    HW2 7689   2.866   3.338   2.437
 2115SOL     OW 7690   2.213   3.663   2.715
 2115SOL    HW1 7691   2.263   3.577   2.721
 2115SOL    HW2 7692   2.278   3.740   2.712
 2116SOL     OW 7693   3.657   2.928   2.735
 2116SOL    HW1 7694   3.595   2.913   2.659
 2116SOL    HW2 7695   3.605   2.939   2.820
 2117SOL     OW 7696   3.089   3.412   3.368
 2117SOL    HW1 7697   3.095   3.335   3.432
 2117SOL    HW2 7698   3.037   3.386   3.288
 2118SOL     OW 7699   2.183   2.805   2.104
 2118SOL    HW1 7700   2.265   2.844   2.062
 2118SOL    HW2 7701   2.156   2.723   2.055
 2119SOL     OW 7702   3.320   2.597   2.590
 2119SOL    HW1 7703   3.315   2.532   2.665
 2119SOL    HW2 7704   3.400   2.656   2.603
 2120SOL     OW 7705   2.323   3.128   3.589
 2120SOL    HW1 7706   2.273   3.129   3.503
 2120SOL    HW2 7707   2.260   3.110   3.665
 2121SOL     OW 7708   2.973   3.638   2.099
 2121SOL    HW1 7709   2.913   3.576   2.149
 2121SOL    HW2 7710   3.004   3.594   2.014
 2122SOL     OW 7711   2.064   2.147   3.360
 2122SOL    HW1 7712   1.984   2.207   3.347
 2122SOL    HW2 7713   2.054   2.098   3.446
 2123SOL     OW 7714   3.494   3.239   1.943
 2123SOL    HW1 7715   3.462   3.333   1.933
 2123SOL    HW2 7716   3.418   3.176   1.931
 2124SOL     OW 7717   2.326   3.605   2.185
 2124SOL    HW1 7718   2.359   3.644   2.271
 2124SOL    HW2 7719   2.402   3.598   2.120
 2125SOL     OW 7720   3.262   1.969   2.288
 2125SOL    HW1 7721   3.238   1.932   2.198
 2125SOL    HW2 7722   3.361   1.985   2.292
 2126SOL     OW 7723   2.111   3.647   3.103
 2126SOL    HW1 7724   2.168   3.582   3.153
 2126SOL    HW2 7725   2.095   3.614   3.010
 2127SOL     OW 7726   2.802   3.560   2.766
 2127SOL    HW1 7727   2.882   3.503   2.787
 2127SOL    HW2 7728   2.753   3.520   2.689
 2128SOL     OW 7729   2.244   2.562   2.342
 2128SOL    HW1 7730   2.289   2.472   2.339
 2128SOL    HW2 7731   2.150   2.551   2.375
 2129SOL     OW 7732   2.476   1.984   1.979
 2129SOL    HW1 7733   2.574   1.962   1.986
 2129SOL    HW2 7734   2.445   1.967   1.886
 2130SOL     OW 7735   2.643   2.126   3.611
 2130SOL    HW1 7736   2.710   2.065   3.654
 2130SOL    HW2 7737   2.570   2.145   3.676
 2131SOL     OW 7738   2.750   3.376   3.057
 2131SOL    HW1 7739   2.727   3.351   2.963
 2131SOL    HW2 7740   2.811   3.307   3.096
 2132SOL     OW 7741   3.213   2.452   3.295
 2132SOL    HW1 7742   3.241   2.409   3.380
 2132SOL    HW2 7743   3.238   2.548   3.296
 2133SOL     OW 7744   2.665   3.264   2.786
 2133SOL    HW1 7745   2.755   3.278   2.744
 2133SOL    HW2 7746   2.594   3.266   2.715
 2134SOL     OW 7747   2.401   1.926   2.374
 2134SOL    HW1 7748   2.320   1.927   2.432
 2134SOL    HW2 7749   2.404   2.009   2.319
 2135SOL     OW 7750   3.296   3.050   1.903
 2135SOL    HW1 7751   3.328   2.974   1.960
 2135SOL    HW2 7752   3.204   3.077   1.933
 2136SOL     OW 7753   2.159   1.897   2.033
 2136SOL    HW1 7754   2.208   1.981   2.012
 2136SOL    HW2 7755   2.221   1.832   2.078
 2137SOL     OW 7756   2.797   2.098   2.342
 2137SOL    HW1 7757   2.749   2.139   2.264
 2137SOL    HW2 7758   2.896   2.096   2.323
 2138SOL     OW 7759   2.938   2.545   3.326
 2138SOL    HW1 7760   2.858   2.484   3.329
 2138SOL    HW2 7761   3.019   2.492   3.302
 2139SOL     OW 7762   3.089   3.432   2.655
 2139SOL    HW1 7763   3.110   3.506   2.590
 2139SOL    HW2 7764   3.157   3.432   2.728
 2140SOL     OW 7765   2.321   3.014   2.603
 2140SOL    HW1 7766   2.250   2.987   2.668
 2140SOL    HW2 7767   2.295   2.986   2.510
 2141SOL     OW 7768   3.133   3.659   2.453
 2141SOL    HW1 7769   3.177   3.723   2.389
 2141SOL    HW2 7770   3.083   3.711   2.523
 2142SOL     OW 7771   2.894   2.411   1.878
 2142SOL    HW1 7772   2.853   2.493   1.839
 2142SOL    HW2 7773   2.958   2.437   1.951
 2143SOL     OW 7774   1.940   2.418   3.248
 2143SOL    HW1 7775   2.032   2.417   3.207
 2143SOL    HW2 7776   1.934   2.492   3.315
 2144SOL     OW 7777   2.423   2.084   3.009
 2144SOL    HW1 7778   2.461   2.000   3.046
 2144SOL    HW2 7779   2.335   2.103   3.053
 2145SOL     OW 7780   2.879   1.901   2.615
 2145SOL    HW1 7781   2.807   1.906   2.546
 2145SOL    HW2 7782   2.855   1.832   2.684
 2146SOL     OW 7783   3.291   3.035   2.729
 2146SOL    HW1 7784   3.236   2.951   2.722
 2146SOL    HW2 7785   3.317   3.064   2.637
 2147SOL     OW 7786   3.328   2.452   2.854
 2147SOL    HW1 7787   3.298   2.357   2.861
 2147SOL    HW2 7788   3.401   2.468   2.920
 2148SOL     OW 7789   3.719   2.695   2.239
 2148SOL    HW1 7790   3.761   2.631   2.303
 2148SOL    HW2 7791   3.681   2.644   2.161
 2149SOL     OW 7792   2.350   3.247   2.036
 2149SOL    HW1 7793   2.263   3.232   2.083
 2149SOL    HW2 7794   2.333   3.273   1.941
 2150SOL     OW 7795   3.526   3.142   2.519
 2150SOL    HW1 7796   3.625   3.150   2.533
 2150SOL    HW2 7797   3.481   3.226   2.550
 2151SOL     OW 7798   3.252   2.437   1.940
 2151SOL    HW1 7799   3.198   2.416   2.021
 2151SOL    HW2 7800   3.343   2.396   1.949
 2152SOL     OW 7801   2.389   2.118   2.190
 2152SOL    HW1 7802   2.416   2.059   2.115
 2152SOL    HW2 7803   2.389   2.213   2.159
 2153SOL     OW 7804   3.616   3.085   3.450
 2153SOL    HW1 7805   3.707   3.046   3.437
 2153SOL    HW2 7806   3.624   3.181   3.474
 2154SOL     OW 7807   2.926   3.209   3.202
 2154SOL    HW1 7808   2.846   3.186   3.257
 2154SOL    HW2 7809   3.009   3.183   3.251
 2155SOL     OW 7810   3.454   3.491   3.487
 2155SOL    HW1 7811   3.481   3.525   3.397
 2155SOL    HW2 7812   3.533   3.453   3.533
 2156SOL     OW 7813   2.973   3.057   2.962
 2156SOL    HW1 7814   2.933   3.101   3.043
 2156SOL    HW2 7815   2.932   3.094   2.879
 2157SOL     OW 7816   3.500   2.961   2.941
 2157SOL    HW1 7817   3.505   3.042   3.000
 2157SOL    HW2 7818   3.414   2.963   2.890
 2158SOL     OW 7819   2.777   1.951   3.264
 2158SOL    HW1 7820   2.802   1.931   3.169
 2158SOL    HW2 7821   2.849   2.007   3.306
 2159SOL     OW 7822   2.842   2.978   3.581
 2159SOL    HW1 7823   2.743   2.984   3.591
 2159SOL    HW2 7824   2.865   2.898   3.525
 2160SOL     OW 7825   2.272   2.675   3.113
 2160SOL    HW1 7826   2.358   2.687   3.163
 2160SOL    HW2 7827   2.230   2.588   3.140
 2161SOL     OW 7828   3.136   2.248   3.124
 2161SOL    HW1 7829   3.157   2.322   3.188
 2161SOL    HW2 7830   3.047   2.265   3.081
 2162SOL     OW 7831   1.926   3.426   3.193
 2162SOL    HW1 7832   1.880   3.508   3.159
 2162SOL    HW2 7833   2.024   3.445   3.202
 2163SOL     OW 7834   2.229   2.962   2.363
 2163SOL    HW1 7835   2.222   3.045   2.307
 2163SOL    HW2 7836   2.233   2.882   2.303
 2164SOL     OW 7837   3.114   3.210   2.250
 2164SOL    HW1 7838   3.164   3.287   2.290
 2164SOL    HW2 7839   3.019   3.212   2.282
 2165SOL     OW 7840   3.134   3.307   3.004
 2165SOL    HW1 7841   3.181   3.320   3.091
 2165SOL    HW2 7842   3.068   3.233   3.013
 2166SOL     OW 7843   3.444   2.501   2.334
 2166SOL    HW1 7844   3.413   2.562   2.407
 2166SOL    HW2 7845   3.494   2.553   2.265
 2167SOL     OW 7846   2.216   3.372   3.191
 2167SOL    HW1 7847   2.195   3.328   3.104
 2167SOL    HW2 7848   2.313   3.398   3.194
 2168SOL     OW 7849   2.264   2.613   3.460
 2168SOL    HW1 7850   2.332   2.668   3.413
 2168SOL    HW2 7851   2.304   2.525   3.487
 2169SOL     OW 7852   3.449   2.641   3.532
 2169SOL    HW1 7853   3.357   2.679   3.527
 2169SOL    HW2 7854   3.509   2.688   3.467
 2170SOL     OW 7855   2.366   1.912   3.602
 2170SOL    HW1 7856   2.324   1.855   3.532
 2170SOL    HW2 7857   2.300   1.981   3.634
 2171SOL     OW 7858   2.435   2.732   2.891
 2171SOL    HW1 7859   2.479   2.821   2.882
 2171SOL    HW2 7860   2.372   2.732   2.968
 2172SOL     OW 7861   3.222   2.724   2.907
 2172SOL    HW1 7862   3.147   2.724   2.841
 2172SOL    HW2 7863   3.259   2.632   2.916
 2173SOL     OW 7864   3.071   2.387   2.137
 2173SOL    HW1 7865   3.084   2.303   2.191
 2173SOL    HW2 7866   3.042   2.461   2.197
 2174SOL     OW 7867   2.169   2.075   3.093
 2174SOL    HW1 7868   2.146   2.112   3.183
 2174SOL    HW2 7869   2.139   1.980   3.087
 2175SOL     OW 7870   1.899   3.172   3.144
 2175SOL    HW1 7871   1.952   3.123   3.212
 2175SOL    HW2 7872   1.921   3.270   3.149
 2176SOL     OW 7873   3.590   2.797   3.716
 2176SOL    HW1 7874   3.544   2.790   3.627
 2176SOL    HW2 7875   3.528   2.841   3.782
 2177SOL     OW 7876   2.169   1.925   2.480
 2177SOL    HW1 7877   2.158   2.019   2.513
 2177SOL    HW2 7878   2.164   1.862   2.557
 2178SOL     OW 7879   3.484   2.229   2.236
 2178SOL    HW1 7880   3.486   2.153   2.300
 2178SOL    HW2 7881   3.436   2.306   2.276
 2179SOL     OW 7882   2.885   2.628   2.828
 2179SOL    HW1 7883   2.900   2.649   2.924
 2179SOL    HW2 7884   2.855   2.533   2.819
 2180SOL     OW 7885   2.842   3.435   3.562
 2180SOL    HW1 7886   2.822   3.479   3.474
 2180SOL    HW2 7887   2.881   3.344   3.546
 2181SOL     OW 7888   3.721   3.380   3.467
 2181SOL    HW1 7889   3.735   3.407   3.372
 2181SOL    HW2 7890   3.804   3.402   3.520
 2182SOL     OW 7891   2.212   2.760   3.666
 2182SOL    HW1 7892   2.288   2.804   3.714
 2182SOL    HW2 7893   2.247   2.713   3.584
 2183SOL     OW 7894   3.402   2.136   1.987
 2183SOL    HW1 7895   3.341   2.061   2.010
 2183SOL    HW2 7896   3.424   2.188   2.070
 2184SOL     OW 7897   3.165   2.700   1.904
 2184SOL    HW1 7898   3.199   2.607   1.919
 2184SOL    HW2 7899   3.183   2.727   1.809
 2185SOL     OW 7900   2.930   3.195   2.711
 2185SOL    HW1 7901   2.937   3.111   2.656
 2185SOL    HW2 7902   2.992   3.264   2.675
 2186SOL     OW 7903   2.181   2.672   2.811
 2186SOL    HW1 7904   2.274   2.708   2.816
 2186SOL    HW2 7905   2.175   2.587   2.863
 2187SOL     OW 7906   2.201   2.371   2.868
 2187SOL    HW1 7907   2.149   2.288   2.851
 2187SOL    HW2 7908   2.278   2.376   2.804
 2188SOL     OW 7909   3.000   2.242   3.540
 2188SOL    HW1 7910   2.955   2.305   3.604
 2188SOL    HW2 7911   3.093   2.273   3.523
 2189SOL     OW 7912   3.022   2.069   3.339
 2189SOL    HW1 7913   3.022   2.133   3.416
 2189SOL    HW2 7914   3.050   2.117   3.256
 2190SOL     OW 7915   1.870   3.188   2.062
 2190SOL    HW1 7916   1.777   3.209   2.031
 2190SOL    HW2 7917   1.880   3.089   2.075
 2191SOL     OW 7918   1.950   3.663   2.789
 2191SOL    HW1 7919   1.908   3.577   2.762
 2191SOL    HW2 7920   2.044   3.666   2.755
 2192SOL     OW 7921   2.366   3.430   2.772
 2192SOL    HW1 7922   2.432   3.504   2.781
 2192SOL    HW2 7923   2.410   3.351   2.730
 2193SOL     OW 7924   2.864   2.658   3.100
 2193SOL    HW1 7925   2.905   2.626   3.186
 2193SOL    HW2 7926   2.768   2.631   3.097
 2194SOL     OW 7927   1.902   2.406   2.976
 2194SOL    HW1 7928   1.987   2.373   2.935
 2194SOL    HW2 7929   1.915   2.421   3.074
 2195SOL     OW 7930   2.051   2.382   3.584
 2195SOL    HW1 7931   2.110   2.342   3.514
 2195SOL    HW2 7932   1.993   2.453   3.543
 2196SOL     OW 7933   3.231   2.812   3.522
 2196SOL    HW1 7934   3.270   2.901   3.542
 2196SOL    HW2 7935   3.241   2.792   3.425
 2197SOL     OW 7936   2.677   2.434   2.187
 2197SOL    HW1 7937   2.684   2.345   2.141
 2197SOL    HW2 7938   2.583   2.468   2.179
 2198SOL     OW 7939   3.519   2.466   3.068
 2198SOL    HW1 7940   3.481   2.397   3.130
 2198SOL    HW2 7941   3.601   2.430   3.024
 2199SOL     OW 7942   2.533   2.326   3.131
 2199SOL    HW1 7943   2.499   2.237   3.101
 2199SOL    HW2 7944   2.559   2.380   3.051
 2200SOL     OW 7945   2.335   2.362   2.053
 2200SOL    HW1 7946   2.396   2.442   2.057
 2200SOL    HW2 7947   2.240   2.393   2.060
 2201SOL     OW 7948   2.021   2.999   3.328
 2201SOL    HW1 7949   2.043   2.938   3.404
 2201SOL    HW2 7950   2.031   2.950   3.242
 2202SOL     OW 7951   3.209   2.921   3.096
 2202SOL    HW1 7952   3.233   2.858   3.022
 2202SOL    HW2 7953   3.119   2.961   3.078
 2203SOL     OW 7954   3.164   2.717   2.171
 2203SOL    HW1 7955   3.078   2.686   2.213
 2203SOL    HW2 7956   3.160   2.703   2.072
 2204SOL     OW 7957   3.621   3.609   3.016
 2204SOL    HW1 7958   3.682   3.639   2.943
 2204SOL    HW2 7959   3.583   3.520   2.994
 2205SOL     OW 7960   3.114   3.593   2.990
 2205SOL    HW1 7961   3.198   3.598   2.936
 2205SOL    HW2 7962   3.091   3.497   3.008
 2206SOL     OW 7963   1.945   3.120   2.884
 2206SOL    HW1 7964   1.940   3.119   2.984
 2206SOL    HW2 7965   1.862   3.079   2.846
 2207SOL     OW 7966   3.588   1.997   2.385
 2207SOL    HW1 7967   3.661   1.980   2.318
 2207SOL    HW2 7968   3.557   1.910   2.423
 2208SOL     OW 7969   3.250   3.435   2.339
 2208SOL    HW1 7970   3.317   3.447   2.265
 2208SOL    HW2 7971   3.210   3.524   2.362
 2209SOL     OW 7972   3.142   2.789   2.534
 2209SOL    HW1 7973   3.202   2.708   2.536
 2209SOL    HW2 7974   3.182   2.858   2.474
 2210SOL     OW 7975   2.692   3.135   3.284
 2210SOL    HW1 7976   2.687   3.168   3.379
 2210SOL    HW2 7977   2.606   3.154   3.238
 2211SOL     OW 7978   2.534   3.478   2.016
 2211SOL    HW1 7979   2.543   3.488   1.917
 2211SOL    HW2 7980   2.494   3.389   2.037
 2212SOL     OW 7981   3.512   3.582   3.256
 2212SOL    HW1 7982   3.565   3.592   3.172
 2212SOL    HW2 7983   3.485   3.672   3.290
 2213SOL     OW 7984   3.703   2.037   2.825
 2213SOL    HW1 7985   3.742   1.952   2.789
 2213SOL    HW2 7986   3.605   2.039   2.806
 2214SOL     OW 7987   3.056   3.474   1.893
 2214SOL    HW1 7988   3.062   3.381   1.930
 2214SOL    HW2 7989   2.997   3.474   1.813
 2215SOL     OW 7990   2.684   2.864   3.234
 2215SOL    HW1 7991   2.724   2.863   3.142
 2215SOL    HW2 7992   2.694   2.956   3.274
 2216SOL     OW 7993   2.778   2.772   2.153
 2216SOL    HW1 7994   2.841   2.810   2.085
 2216SOL    HW2 7995   2.818   2.689   2.192
 2217SOL     OW 7996   2.234   3.150   3.352
 2217SOL    HW1 7997   2.221   3.243   3.318
 2217SOL    HW2 7998   2.150   3.098   3.339
 2218SOL     OW 7999   3.476   3.154   3.151
 2218SOL    HW1 8000   3.536   3.157   3.231
 2218SOL    HW2 8001   3.401   3.218   3.164
 2219SOL     OW 8002   2.901   2.960   2.558
 2219SOL    HW1 8003   2.831   2.913   2.612
 2219SOL    HW2 8004   2.960   2.892   2.515
 2220SOL     OW 8005   2.876   2.098   2.833
 2220SOL    HW1 8006   2.868   2.062   2.740
 2220SOL    HW2 8007   2.874   2.022   2.898
 2221SOL     OW 8008   2.452   3.349   2.353
 2221SOL    HW1 8009   2.494   3.291   2.283
 2221SOL    HW2 8010   2.408   3.428   2.309
 2222SOL     OW 8011   3.571   2.247   3.243
 2222SOL    HW1 8012   3.644   2.316   3.247
 2222SOL    HW2 8013   3.599   2.172   3.184
 2223SOL     OW 8014   2.117   3.210   2.152
 2223SOL    HW1 8015   2.021   3.211   2.125
 2223SOL    HW2 8016   2.129   3.263   2.236
 2224SOL     OW 8017   1.967   2.875   3.588
 2224SOL    HW1 8018   1.890   2.842   3.642
 2224SOL    HW2 8019   2.052   2.845   3.630
 2225SOL     OW 8020   2.534   2.065   3.351
 2225SOL    HW1 8021   2.624   2.049   3.311
 2225SOL    HW2 8022   2.542   2.070   3.450
 2226SOL     OW 8023   1.937   2.207   1.895
 2226SOL    HW1 8024   1.845   2.179   1.866
 2226SOL    HW2 8025   1.968   2.284   1.839
 2227SOL     OW 8026   3.302   2.718   3.260
 2227SOL    HW1 8027   3.245   2.770   3.197
 2227SOL    HW2 8028   3.398   2.730   3.236
 2228SOL     OW 8029   1.934   2.028   2.180
 2228SOL    HW1 8030   1.917   2.111   2.126
 2228SOL    HW2 8031   2.024   1.991   2.158
 2229SOL     OW 8032   3.045   3.197   1.981
 2229SOL    HW1 8033   2.946   3.186   1.983
 2229SOL    HW2 8034   3.079   3.212   2.074
 2230SOL     OW 8035   2.475   2.704   3.293
 2230SOL    HW1 8036   2.531   2.785   3.276
 2230SOL    HW2 8037   2.534   2.624   3.296
 2231SOL     OW 8038   3.355   3.629   2.821
 2231SOL    HW1 8039   3.388   3.693   2.752
 2231SOL    HW2 8040   3.421   3.623   2.896
 2232SOL     OW 8041   2.578   2.427   3.570
 2232SOL    HW1 8042   2.597   2.492   3.644
 2232SOL    HW2 8043   2.638   2.347   3.579
 2233SOL     OW 8044   3.312   3.082   3.495
 2233SOL    HW1 8045   3.303   3.072   3.594
 2233SOL    HW2 8046   3.408   3.075   3.469
 2234SOL     OW 8047   3.536   2.745   3.116
 2234SOL    HW1 8048   3.509   2.656   3.079
 2234SOL    HW2 8049   3.537   2.813   3.043
 2235SOL     OW 8050   3.087   2.187   2.311
 2235SOL    HW1 8051   3.152   2.113   2.300
 2235SOL    HW2 8052   3.107   2.237   2.395
 2236SOL     OW 8053   3.639   2.204   3.504
 2236SOL    HW1 8054   3.622   2.235   3.410
 2236SOL    HW2 8055   3.555   2.167   3.542
 2237SOL     OW 8056   3.592   2.796   3.379
 2237SOL    HW1 8057   3.630   2.887   3.394
 2237SOL    HW2 8058   3.584   2.779   3.280
 2238SOL     OW 8059   2.721   3.236   1.878
 2238SOL    HW1 8060   2.675   3.251   1.966
 2238SOL    HW2 8061   2.765   3.321   1.848
 2239SOL     OW 8062   2.523   3.652   2.815
 2239SOL    HW1 8063   2.477   3.740   2.802
 2239SOL    HW2 8064   2.622   3.664   2.808
 2240SOL     OW 8065   2.945   2.846   1.949
 2240SOL    HW1 8066   2.922   2.899   1.867
 2240SOL    HW2 8067   3.026   2.790   1.930
 2241SOL     OW 8068   3.723   3.431   2.713
 2241SOL    HW1 8069   3.652   3.419   2.643
 2241SOL    HW2 8070   3.724   3.352   2.773
 2242SOL     OW 8071   1.941   3.102   2.515
 2242SOL    HW1 8072   1.940   3.055   2.603
 2242SOL    HW2 8073   2.023   3.074   2.464
 2243SOL     OW 8074   2.534   3.253   3.486
 2243SOL    HW1 8075   2.456   3.203   3.524
 2243SOL    HW2 8076   2.531   3.348   3.517
 2244SOL     OW 8077   3.686   2.054   3.089
 2244SOL    HW1 8078   3.682   1.964   3.133
 2244SOL    HW2 8079   3.689   2.043   2.990
 2245SOL     OW 8080   3.567   3.349   2.966
 2245SOL    HW1 8081   3.474   3.324   2.939
 2245SOL    HW2 8082   3.593   3.299   3.048
 2246SOL     OW 8083   2.179   2.409   3.142
 2246SOL    HW1 8084   2.217   2.350   3.214
 2246SOL    HW2 8085   2.219   2.383   3.054
 2247SOL     OW 8086   2.674   3.448   2.549
 2247SOL    HW1 8087   2.706   3.458   2.455
 2247SOL    HW2 8088   2.595   3.386   2.551
 2248SOL     OW 8089   3.286   2.076   2.974
 2248SOL    HW1 8090   3.338   2.011   3.029
 2248SOL    HW2 8091   3.237   2.139   3.035
 2249SOL     OW 8092   2.863   1.896   3.016
 2249SOL    HW1 8093   2.800   1.824   2.985
 2249SOL    HW2 8094   2.956   1.860   3.016
 2250SOL     OW 8095   2.632   3.192   2.163
 2250SOL    HW1 8096   2.586   3.105   2.180
 2250SOL    HW2 8097   2.723   3.189   2.204
 2251SOL     OW 8098   3.214   1.914   2.030
 2251SOL    HW1 8099   3.249   1.873   1.946
 2251SOL    HW2 8100   3.124   1.876   2.050
 2252SOL     OW 8101   3.455   2.083   2.744
 2252SOL    HW1 8102   3.371   2.082   2.798
 2252SOL    HW2 8103   3.457   2.166   2.688
 2253SOL     OW 8104   1.901   2.939   2.162
 2253SOL    HW1 8105   2.000   2.928   2.153
 2253SOL    HW2 8106   1.861   2.853   2.194
 2254SOL     OW 8107   2.737   3.508   2.199
 2254SOL    HW1 8108   2.660   3.473   2.145
 2254SOL    HW2 8109   2.705   3.579   2.261
 2255SOL     OW 8110   1.881   2.230   4.371
 2255SOL    HW1 8111   1.799   2.273   4.410
 2255SOL    HW2 8112   1.853   2.157   4.308
 2256SOL     OW 8113   3.417   3.373   4.427
 2256SOL    HW1 8114   3.360   3.357   4.508
 2256SOL    HW2 8115   3.358   3.383   4.347
 2257SOL     OW 8116   2.997   2.565   4.441
 2257SOL    HW1 8117   3.054   2.643   4.416
 2257SOL    HW2 8118   2.937   2.591   4.517
 2258SOL     OW 8119   3.617   2.469   3.955
 2258SOL    HW1 8120   3.605   2.456   3.856
 2258SOL    HW2 8121   3.587   2.388   4.004
 2259SOL     OW 8122   2.630   3.006   4.747
 2259SOL    HW1 8123   2.552   3.023   4.807
 2259SOL    HW2 8124   2.664   3.093   4.711
 2260SOL     OW 8125   2.547   2.874   4.389
 2260SOL    HW1 8126   2.616   2.858   4.459
 2260SOL    HW2 8127   2.474   2.931   4.427
 2261SOL     OW 8128   2.197   3.297   4.785
 2261SOL    HW1 8129   2.119   3.266   4.732
 2261SOL    HW2 8130   2.255   3.355   4.728
 2262SOL     OW 8131   3.465   2.309   4.461
 2262SOL    HW1 8132   3.391   2.355   4.411
 2262SOL    HW2 8133   3.516   2.377   4.514
 2263SOL     OW 8134   2.093   3.575   4.207
 2263SOL    HW1 8135   2.127   3.652   4.261
 2263SOL    HW2 8136   2.137   3.575   4.117
 2264SOL     OW 8137   2.092   3.296   4.262
 2264SOL    HW1 8138   2.066   3.392   4.262
 2264SOL    HW2 8139   2.021   3.242   4.307
 2265SOL     OW 8140   2.102   2.953   4.610
 2265SOL    HW1 8141   2.116   2.869   4.662
 2265SOL    HW2 8142   2.047   3.017   4.665
 2266SOL     OW 8143   2.482   3.648   5.163
 2266SOL    HW1 8144   2.390   3.631   5.198
 2266SOL    HW2 8145   2.510   3.740   5.189
 2267SOL     OW 8146   2.468   2.826   3.847
 2267SOL    HW1 8147   2.475   2.910   3.793
 2267SOL    HW2 8148   2.514   2.839   3.935
 2268SOL     OW 8149   3.704   3.629   4.083
 2268SOL    HW1 8150   3.758   3.600   4.163
 2268SOL    HW2 8151   3.734   3.719   4.054
 2269SOL     OW 8152   3.551   2.784   4.336
 2269SOL    HW1 8153   3.646   2.755   4.344
 2269SOL    HW2 8154   3.543   2.849   4.261
 2270SOL     OW 8155   3.503   2.970   4.156
 2270SOL    HW1 8156   3.589   2.972   4.104
 2270SOL    HW2 8157   3.517   3.017   4.244
 2271SOL     OW 8158   2.475   3.227   4.450
 2271SOL    HW1 8159   2.426   3.140   4.459
 2271SOL    HW2 8160   2.452   3.270   4.363
 2272SOL     OW 8161   2.671   1.866   4.226
 2272SOL    HW1 8162   2.711   1.957   4.217
 2272SOL    HW2 8163   2.571   1.874   4.232
 2273SOL     OW 8164   2.059   2.838   4.988
 2273SOL    HW1 8165   2.148   2.793   4.974
 2273SOL    HW2 8166   1.986   2.773   4.969
 2274SOL     OW 8167   3.387   2.861   3.914
 2274SOL    HW1 8168   3.324   2.785   3.927
 2274SOL    HW2 8169   3.435   2.879   4.000
 2275SOL     OW 8170   3.328   3.279   4.677
 2275SOL    HW1 8171   3.269   3.285   4.757
 2275SOL    HW2 8172   3.313   3.191   4.631
 2276SOL     OW 8173   3.529   3.576   4.296
 2276SOL    HW1 8174   3.488   3.553   4.208
 2276SOL    HW2 8175   3.511   3.502   4.361
 2277SOL     OW 8176   3.143   2.207   4.668
 2277SOL    HW1 8177   3.057   2.157   4.655
 2277SOL    HW2 8178   3.205   2.153   4.724
 2278SOL     OW 8179   3.438   3.524   4.031
 2278SOL    HW1 8180   3.527   3.570   4.034
 2278SOL    HW2 8181   3.417   3.500   3.936
 2279SOL     OW 8182   2.853   2.272   4.966
 2279SOL    HW1 8183   2.776   2.306   5.020
 2279SOL    HW2 8184   2.819   2.221   4.887
 2280SOL     OW 8185   2.903   2.563   4.153
 2280SOL    HW1 8186   2.929   2.559   4.249
 2280SOL    HW2 8187   2.818   2.512   4.139
 2281SOL     OW 8188   1.938   2.673   4.513
 2281SOL    HW1 8189   2.037   2.661   4.522
 2281SOL    HW2 8190   1.914   2.768   4.534
 2282SOL     OW 8191   2.727   2.210   3.919
 2282SOL    HW1 8192   2.786   2.273   3.870
 2282SOL    HW2 8193   2.746   2.116   3.890
 2283SOL     OW 8194   3.224   3.006   4.269
 2283SOL    HW1 8195   3.307   2.977   4.221
 2283SOL    HW2 8196   3.175   3.073   4.213
 2284SOL     OW 8197   2.412   2.058   4.609
 2284SOL    HW1 8198   2.407   2.053   4.709
 2284SOL    HW2 8199   2.414   2.154   4.580
 2285SOL     OW 8200   2.870   3.318   4.201
 2285SOL    HW1 8201   2.824   3.390   4.149
 2285SOL    HW2 8202   2.866   3.338   4.299
 2286SOL     OW 8203   2.213   3.663   4.577
 2286SOL    HW1 8204   2.263   3.577   4.583
 2286SOL    HW2 8205   2.278   3.740   4.574
 2287SOL     OW 8206   3.657   2.928   4.597
 2287SOL    HW1 8207   3.595   2.913   4.521
 2287SOL    HW2 8208   3.605   2.939   4.682
 2288SOL     OW 8209   2.183   2.805   3.966
 2288SOL    HW1 8210   2.265   2.844   3.924
 2288SOL    HW2 8211   2.156   2.723   3.917
 2289SOL     OW 8212   3.320   2.597   4.452
 2289SOL    HW1 8213   3.315   2.532   4.527
 2289SOL    HW2 8214   3.400   2.656   4.465
 2290SOL     OW 8215   2.973   3.638   3.961
 2290SOL    HW1 8216   2.913   3.576   4.011
 2290SOL    HW2 8217   3.004   3.594   3.876
 2291SOL     OW 8218   3.494   3.239   3.805
 2291SOL    HW1 8219   3.462   3.333   3.795
 2291SOL    HW2 8220   3.418   3.176   3.793
 2292SOL     OW 8221   2.326   3.605   4.047
 2292SOL    HW1 8222   2.359   3.644   4.133
 2292SOL    HW2 8223   2.402   3.598   3.982
 2293SOL     OW 8224   2.111   3.647   4.965
 2293SOL    HW1 8225   2.168   3.582   5.015
 2293SOL    HW2 8226   2.095   3.614   4.872
 2294SOL     OW 8227   2.802   3.560   4.628
 2294SOL    HW1 8228   2.882   3.503   4.649
 2294SOL    HW2 8229   2.753   3.520   4.551
 2295SOL     OW 8230   2.476   1.984   3.841
 2295SOL    HW1 8231   2.574   1.962   3.848
 2295SOL    HW2 8232   2.445   1.967   3.748
 2296SOL     OW 8233   2.665   3.264   4.648
 2296SOL    HW1 8234   2.755   3.278   4.606
 2296SOL    HW2 8235   2.594   3.266   4.577
 2297SOL     OW 8236   2.784   2.365   4.623
 2297SOL    HW1 8237   2.759   2.356   4.527
 2297SOL    HW2 8238   2.832   2.283   4.654
 2298SOL     OW 8239   2.401   1.926   4.236
 2298SOL    HW1 8240   2.320   1.927   4.294
 2298SOL    HW2 8241   2.404   2.009   4.181
 2299SOL     OW 8242   3.296   3.050   3.765
 2299SOL    HW1 8243   3.328   2.974   3.822
 2299SOL    HW2 8244   3.204   3.077   3.795
 2300SOL     OW 8245   2.159   1.897   3.895
 2300SOL    HW1 8246   2.208   1.981   3.874
 2300SOL    HW2 8247   2.221   1.832   3.940
 2301SOL     OW 8248   2.797   2.098   4.204
 2301SOL    HW1 8249   2.749   2.139   4.126
 2301SOL    HW2 8250   2.896   2.096   4.185
 2302SOL     OW 8251   3.089   3.432   4.517
 2302SOL    HW1 8252   3.110   3.506   4.452
 2302SOL    HW2 8253   3.157   3.432   4.590
 2303SOL     OW 8254   2.321   3.014   4.465
 2303SOL    HW1 8255   2.250   2.987   4.530
 2303SOL    HW2 8256   2.295   2.986   4.372
 2304SOL     OW 8257   3.133   3.659   4.315
 2304SOL    HW1 8258   3.177   3.723   4.251
 2304SOL    HW2 8259   3.083   3.711   4.385
 2305SOL     OW 8260   2.894   2.411   3.740
 2305SOL    HW1 8261   2.853   2.493   3.701
 2305SOL    HW2 8262   2.958   2.437   3.813
 2306SOL     OW 8263   2.423   2.084   4.871
 2306SOL    HW1 8264   2.461   2.000   4.908
 2306SOL    HW2 8265   2.335   2.103   4.915
 2307SOL     OW 8266   2.728   2.316   4.366
 2307SOL    HW1 8267   2.696   2.388   4.304
 2307SOL    HW2 8268   2.752   2.235   4.313
 2308SOL     OW 8269   2.879   1.901   4.477
 2308SOL    HW1 8270   2.807   1.906   4.408
 2308SOL    HW2 8271   2.855   1.832   4.546
 2309SOL     OW 8272   3.291   3.035   4.591
 2309SOL    HW1 8273   3.236   2.951   4.584
 2309SOL    HW2 8274   3.317   3.064   4.499
 2310SOL     OW 8275   3.328   2.452   4.716
 2310SOL    HW1 8276   3.298   2.357   4.723
 2310SOL    HW2 8277   3.401   2.468   4.782
 2311SOL     OW 8278   3.719   2.695   4.101
 2311SOL    HW1 8279   3.761   2.631   4.165
 2311SOL    HW2 8280   3.681   2.644   4.023
 2312SOL     OW 8281   2.350   3.247   3.898
 2312SOL    HW1 8282   2.263   3.232   3.945
 2312SOL    HW2 8283   2.333   3.273   3.803
 2313SOL     OW 8284   3.526   3.142   4.381
 2313SOL    HW1 8285   3.625   3.150   4.395
 2313SOL    HW2 8286   3.481   3.226   4.412
 2314SOL     OW 8287   3.252   2.437   3.802
 2314SOL    HW1 8288   3.198   2.416   3.883
 2314SOL    HW2 8289   3.343   2.396   3.811
 2315SOL     OW 8290   2.389   2.118   4.052
 2315SOL    HW1 8291   2.416   2.059   3.977
 2315SOL    HW2 8292   2.389   2.213   4.021
 2316SOL     OW 8293   2.973   3.057   4.824
 2316SOL    HW1 8294   2.933   3.101   4.905
 2316SOL    HW2 8295   2.932   3.094   4.741
 2317SOL     OW 8296   3.500   2.961   4.803
 2317SOL    HW1 8297   3.505   3.042   4.862
 2317SOL    HW2 8298   3.414   2.963   4.752
 2318SOL     OW 8299   2.567   2.912   4.092
 2318SOL    HW1 8300   2.553   2.919   4.191
 2318SOL    HW2 8301   2.651   2.861   4.074
 2319SOL     OW 8302   2.272   2.675   4.975
 2319SOL    HW1 8303   2.358   2.687   5.025
 2319SOL    HW2 8304   2.230   2.588   5.002
 2320SOL     OW 8305   3.136   2.248   4.986
 2320SOL    HW1 8306   3.157   2.322   5.050
 2320SOL    HW2 8307   3.047   2.265   4.943
 2321SOL     OW 8308   2.229   2.962   4.225
 2321SOL    HW1 8309   2.222   3.045   4.169
 2321SOL    HW2 8310   2.233   2.882   4.165
 2322SOL     OW 8311   3.114   3.210   4.112
 2322SOL    HW1 8312   3.164   3.287   4.152
 2322SOL    HW2 8313   3.019   3.212   4.144
 2323SOL     OW 8314   3.134   3.307   4.866
 2323SOL    HW1 8315   3.181   3.320   4.953
 2323SOL    HW2 8316   3.068   3.233   4.875
 2324SOL     OW 8317   3.444   2.501   4.196
 2324SOL    HW1 8318   3.413   2.562   4.269
 2324SOL    HW2 8319   3.494   2.553   4.127
 2325SOL     OW 8320   2.216   3.372   5.053
 2325SOL    HW1 8321   2.195   3.328   4.966
 2325SOL    HW2 8322   2.313   3.398   5.056
 2326SOL     OW 8323   2.435   2.732   4.753
 2326SOL    HW1 8324   2.479   2.821   4.744
 2326SOL    HW2 8325   2.372   2.732   4.830
 2327SOL     OW 8326   3.222   2.724   4.769
 2327SOL    HW1 8327   3.147   2.724   4.703
 2327SOL    HW2 8328   3.259   2.632   4.778
 2328SOL     OW 8329   3.071   2.387   3.999
 2328SOL    HW1 8330   3.084   2.303   4.053
 2328SOL    HW2 8331   3.042   2.461   4.059
 2329SOL     OW 8332   1.899   3.172   5.006
 2329SOL    HW1 8333   1.952   3.123   5.074
 2329SOL    HW2 8334   1.921   3.270   5.011
 2330SOL     OW 8335   2.594   2.496   4.788
 2330SOL    HW1 8336   2.653   2.470   4.712
 2330SOL    HW2 8337   2.566   2.592   4.777
 2331SOL     OW 8338   2.169   1.925   4.342
 2331SOL    HW1 8339   2.158   2.019   4.375
 2331SOL    HW2 8340   2.164   1.862   4.419
 2332SOL     OW 8341   3.484   2.229   4.098
 2332SOL    HW1 8342   3.486   2.153   4.162
 2332SOL    HW2 8343   3.436   2.306   4.138
 2333SOL     OW 8344   2.885   2.628   4.690
 2333SOL    HW1 8345   2.900   2.649   4.786
 2333SOL    HW2 8346   2.855   2.533   4.681
 2334SOL     OW 8347   3.165   2.700   3.766
 2334SOL    HW1 8348   3.199   2.607   3.781
 2334SOL    HW2 8349   3.183   2.727   3.671
 2335SOL     OW 8350   2.930   3.195   4.573
 2335SOL    HW1 8351   2.937   3.111   4.518
 2335SOL    HW2 8352   2.992   3.264   4.537
 2336SOL     OW 8353   2.181   2.672   4.673
 2336SOL    HW1 8354   2.274   2.708   4.678
 2336SOL    HW2 8355   2.175   2.587   4.725
 2337SOL     OW 8356   3.022   2.069   5.201
 2337SOL    HW1 8357   3.022   2.133   5.278
 2337SOL    HW2 8358   3.050   2.117   5.118
 2338SOL     OW 8359   1.950   3.663   4.651
 2338SOL    HW1 8360   1.908   3.577   4.624
 2338SOL    HW2 8361   2.044   3.666   4.617
 2339SOL     OW 8362   2.366   3.430   4.634
 2339SOL    HW1 8363   2.432   3.504   4.643
 2339SOL    HW2 8364   2.410   3.351   4.592
 2340SOL     OW 8365   2.864   2.658   4.962
 2340SOL    HW1 8366   2.905   2.626   5.048
 2340SOL    HW2 8367   2.768   2.631   4.959
 2341SOL     OW 8368   1.902   2.406   4.838
 2341SOL    HW1 8369   1.987   2.373   4.797
 2341SOL    HW2 8370   1.915   2.421   4.936
 2342SOL     OW 8371   2.677   2.434   4.049
 2342SOL    HW1 8372   2.684   2.345   4.003
 2342SOL    HW2 8373   2.583   2.468   4.041
 2343SOL     OW 8374   3.519   2.466   4.930
 2343SOL    HW1 8375   3.481   2.397   4.992
 2343SOL    HW2 8376   3.601   2.430   4.886
 2344SOL     OW 8377   2.533   2.326   4.993
 2344SOL    HW1 8378   2.499   2.237   4.963
 2344SOL    HW2 8379   2.559   2.380   4.913
 2345SOL     OW 8380   2.792   3.540   5.189
 2345SOL    HW1 8381   2.768   3.522   5.094
 2345SOL    HW2 8382   2.822   3.634   5.199
 2346SOL     OW 8383   2.335   2.362   3.915
 2346SOL    HW1 8384   2.396   2.442   3.919
 2346SOL    HW2 8385   2.240   2.393   3.922
 2347SOL     OW 8386   3.209   2.921   4.958
 2347SOL    HW1 8387   3.233   2.858   4.884
 2347SOL    HW2 8388   3.119   2.961   4.940
 2348SOL     OW 8389   3.164   2.717   4.033
 2348SOL    HW1 8390   3.078   2.686   4.075
 2348SOL    HW2 8391   3.160   2.703   3.934
 2349SOL     OW 8392   3.114   3.593   4.852
 2349SOL    HW1 8393   3.198   3.598   4.798
 2349SOL    HW2 8394   3.091   3.497   4.870
 2350SOL     OW 8395   1.945   3.120   4.746
 2350SOL    HW1 8396   1.940   3.119   4.846
 2350SOL    HW2 8397   1.862   3.079   4.708
 2351SOL     OW 8398   3.588   1.997   4.247
 2351SOL    HW1 8399   3.661   1.980   4.180
 2351SOL    HW2 8400   3.557   1.910   4.285
 2352SOL     OW 8401   3.250   3.435   4.201
 2352SOL    HW1 8402   3.317   3.447   4.127
 2352SOL    HW2 8403   3.210   3.524   4.224
 2353SOL     OW 8404   3.142   2.789   4.396
 2353SOL    HW1 8405   3.202   2.708   4.398
 2353SOL    HW2 8406   3.182   2.858   4.336
 2354SOL     OW 8407   2.534   3.478   3.878
 2354SOL    HW1 8408   2.543   3.488   3.779
 2354SOL    HW2 8409   2.494   3.389   3.899
 2355SOL     OW 8410   3.512   3.582   5.118
 2355SOL    HW1 8411   3.565   3.592   5.034
 2355SOL    HW2 8412   3.485   3.672   5.152
 2356SOL     OW 8413   3.703   2.037   4.687
 2356SOL    HW1 8414   3.742   1.952   4.651
 2356SOL    HW2 8415   3.605   2.039   4.668
 2357SOL     OW 8416   3.056   3.474   3.755
 2357SOL    HW1 8417   3.062   3.381   3.792
 2357SOL    HW2 8418   2.997   3.474   3.675
 2358SOL     OW 8419   2.684   2.864   5.096
 2358SOL    HW1 8420   2.724   2.863   5.004
 2358SOL    HW2 8421   2.694   2.956   5.136
 2359SOL     OW 8422   2.778   2.772   4.015
 2359SOL    HW1 8423   2.841   2.810   3.947
 2359SOL    HW2 8424   2.818   2.689   4.054
 2360SOL     OW 8425   3.366   3.469   3.768
 2360SOL    HW1 8426   3.274   3.506   3.775
 2360SOL    HW2 8427   3.404   3.489   3.678
 2361SOL     OW 8428   2.901   2.960   4.420
 2361SOL    HW1 8429   2.831   2.913   4.474
 2361SOL    HW2 8430   2.960   2.892   4.377
 2362SOL     OW 8431   2.876   2.098   4.695
 2362SOL    HW1 8432   2.868   2.062   4.602
 2362SOL    HW2 8433   2.874   2.022   4.760
 2363SOL     OW 8434   2.452   3.349   4.215
 2363SOL    HW1 8435   2.494   3.291   4.145
 2363SOL    HW2 8436   2.408   3.428   4.171
 2364SOL     OW 8437   3.571   2.247   5.105
 2364SOL    HW1 8438   3.644   2.316   5.109
 2364SOL    HW2 8439   3.599   2.172   5.046
 2365SOL     OW 8440   1.937   2.207   3.757
 2365SOL    HW1 8441   1.845   2.179   3.728
 2365SOL    HW2 8442   1.968   2.284   3.701
 2366SOL     OW 8443   1.934   2.028   4.042
 2366SOL    HW1 8444   1.917   2.111   3.988
 2366SOL    HW2 8445   2.024   1.991   4.020
 2367SOL     OW 8446   3.045   3.197   3.843
 2367SOL    HW1 8447   2.946   3.186   3.845
 2367SOL    HW2 8448   3.079   3.212   3.936
 2368SOL     OW 8449   3.355   3.629   4.683
 2368SOL    HW1 8450   3.388   3.693   4.614
 2368SOL    HW2 8451   3.421   3.623   4.758
 2369SOL     OW 8452   3.312   3.082   5.357
 2369SOL    HW1 8453   3.303   3.072   5.456
 2369SOL    HW2 8454   3.408   3.075   5.331
 2370SOL     OW 8455   3.536   2.745   4.978
 2370SOL    HW1 8456   3.509   2.656   4.941
 2370SOL    HW2 8457   3.537   2.813   4.905
 2371SOL     OW 8458   3.592   2.796   5.241
 2371SOL    HW1 8459   3.630   2.887   5.256
 2371SOL    HW2 8460   3.584   2.779   5.142
 2372SOL     OW 8461   2.721   3.236   3.740
 2372SOL    HW1 8462   2.675   3.251   3.828
 2372SOL    HW2 8463   2.765   3.321   3.710
 2373SOL     OW 8464   2.523   3.652   4.677
 2373SOL    HW1 8465   2.477   3.740   4.664
 2373SOL    HW2 8466   2.622   3.664   4.670
 2374SOL     OW 8467   2.721   2.818   4.585
 2374SOL    HW1 8468   2.775   2.749   4.633
 2374SOL    HW2 8469   2.689   2.887   4.651
 2375SOL     OW 8470   2.945   2.846   3.811
 2375SOL    HW1 8471   2.922   2.899   3.729
 2375SOL    HW2 8472   3.026   2.790   3.792
 2376SOL     OW 8473   3.723   3.431   4.575
 2376SOL    HW1 8474   3.652   3.419   4.505
 2376SOL    HW2 8475   3.724   3.352   4.635
 2377SOL     OW 8476   1.941   3.102   4.377
 2377SOL    HW1 8477   1.940   3.055   4.465
 2377SOL    HW2 8478   2.023   3.074   4.326
 2378SOL     OW 8479   3.686   2.054   4.951
 2378SOL    HW1 8480   3.682   1.964   4.995
 2378SOL    HW2 8481   3.689   2.043   4.852
 2379SOL     OW 8482   2.674   3.448   4.411
 2379SOL    HW1 8483   2.706   3.458   4.317
 2379SOL    HW2 8484   2.595   3.386   4.413
 2380SOL     OW 8485   3.286   2.076   4.836
 2380SOL    HW1 8486   3.338   2.011   4.891
 2380SOL    HW2 8487   3.237   2.139   4.897
 2381SOL     OW 8488   2.863   1.896   4.878
 2381SOL    HW1 8489   2.800   1.824   4.847
 2381SOL    HW2 8490   2.956   1.860   4.878
 2382SOL     OW 8491   2.632   3.192   4.025
 2382SOL    HW1 8492   2.586   3.105   4.042
 2382SOL    HW2 8493   2.723   3.189   4.066
 2383SOL     OW 8494   3.162   2.315   4.415
 2383SOL    HW1 8495   3.103   2.395   4.419
 2383SOL    HW2 8496   3.177   2.280   4.508
 2384SOL     OW 8497   3.455   2.083   4.606
 2384SOL    HW1 8498   3.371   2.082   4.660
 2384SOL    HW2 8499   3.457   2.166   4.550
 2385SOL     OW 8500   2.737   3.508   4.061
 2385SOL    HW1 8501   2.660   3.473   4.007
 2385SOL    HW2 8502   2.705   3.579   4.123
 2386SOL     OW 8503   2.092   4.352   0.113
 2386SOL    HW1 8504   1.999   4.350   0.150
 2386SOL    HW2 8505   2.093   4.313   0.021
 2387SOL     OW 8506   2.087   3.999   0.996
 2387SOL    HW1 8507   2.122   3.982   1.088
 2387SOL    HW2 8508   1.999   3.954   0.984
 2388SOL     OW 8509   2.431   4.999   1.165
 2388SOL    HW1 8510   2.338   4.992   1.128
 2388SOL    HW2 8511   2.442   5.088   1.209
 2389SOL     OW 8512   3.417   5.235   0.703
 2389SOL    HW1 8513   3.360   5.219   0.784
 2389SOL    HW2 8514   3.358   5.245   0.623
 2390SOL     OW 8515   2.997   4.427   0.717
 2390SOL    HW1 8516   3.054   4.505   0.692
 2390SOL    HW2 8517   2.937   4.453   0.793
 2391SOL     OW 8518   3.617   4.331   0.231
 2391SOL    HW1 8519   3.605   4.318   0.132
 2391SOL    HW2 8520   3.587   4.250   0.280
 2392SOL     OW 8521   2.630   4.868   1.023
 2392SOL    HW1 8522   2.552   4.885   1.083
 2392SOL    HW2 8523   2.664   4.955   0.987
 2393SOL     OW 8524   2.712   4.522   1.823
 2393SOL    HW1 8525   2.708   4.598   1.888
 2393SOL    HW2 8526   2.734   4.558   1.732
 2394SOL     OW 8527   2.547   4.736   0.665
 2394SOL    HW1 8528   2.616   4.720   0.735
 2394SOL    HW2 8529   2.474   4.793   0.703
 2395SOL     OW 8530   2.548   4.885   1.803
 2395SOL    HW1 8531   2.608   4.964   1.817
 2395SOL    HW2 8532   2.462   4.916   1.762
 2396SOL     OW 8533   2.197   5.159   1.061
 2396SOL    HW1 8534   2.119   5.128   1.008
 2396SOL    HW2 8535   2.255   5.217   1.004
 2397SOL     OW 8536   2.300   4.116   1.499
 2397SOL    HW1 8537   2.382   4.060   1.508
 2397SOL    HW2 8538   2.219   4.058   1.503
 2398SOL     OW 8539   3.465   4.171   0.737
 2398SOL    HW1 8540   3.391   4.217   0.687
 2398SOL    HW2 8541   3.516   4.239   0.790
 2399SOL     OW 8542   2.102   4.815   0.886
 2399SOL    HW1 8543   2.116   4.731   0.938
 2399SOL    HW2 8544   2.047   4.879   0.941
 2400SOL     OW 8545   2.468   4.688   0.123
 2400SOL    HW1 8546   2.475   4.772   0.069
 2400SOL    HW2 8547   2.514   4.701   0.211
 2401SOL     OW 8548   3.456   3.838   1.480
 2401SOL    HW1 8549   3.438   3.905   1.408
 2401SOL    HW2 8550   3.453   3.884   1.569
 2402SOL     OW 8551   3.551   4.646   0.612
 2402SOL    HW1 8552   3.646   4.617   0.620
 2402SOL    HW2 8553   3.543   4.711   0.537
 2403SOL     OW 8554   3.503   4.832   0.432
 2403SOL    HW1 8555   3.589   4.834   0.380
 2403SOL    HW2 8556   3.517   4.879   0.520
 2404SOL     OW 8557   1.975   4.461   1.597
 2404SOL    HW1 8558   2.063   4.448   1.642
 2404SOL    HW2 8559   1.962   4.558   1.575
 2405SOL     OW 8560   3.155   4.952   1.423
 2405SOL    HW1 8561   3.192   4.879   1.365
 2405SOL    HW2 8562   3.207   4.957   1.508
 2406SOL     OW 8563   2.671   3.728   0.502
 2406SOL    HW1 8564   2.711   3.819   0.493
 2406SOL    HW2 8565   2.571   3.736   0.508
 2407SOL     OW 8566   2.059   4.700   1.264
 2407SOL    HW1 8567   2.148   4.655   1.250
 2407SOL    HW2 8568   1.986   4.635   1.245
 2408SOL     OW 8569   3.387   4.723   0.190
 2408SOL    HW1 8570   3.324   4.647   0.203
 2408SOL    HW2 8571   3.435   4.741   0.276
 2409SOL     OW 8572   2.179   3.975   1.801
 2409SOL    HW1 8573   2.250   4.046   1.807
 2409SOL    HW2 8574   2.091   4.014   1.829
 2410SOL     OW 8575   3.328   5.141   0.953
 2410SOL    HW1 8576   3.269   5.147   1.033
 2410SOL    HW2 8577   3.313   5.053   0.907
 2411SOL     OW 8578   2.460   4.453   0.270
 2411SOL    HW1 8579   2.484   4.522   0.202
 2411SOL    HW2 8580   2.382   4.486   0.324
 2412SOL     OW 8581   2.669   4.329   1.465
 2412SOL    HW1 8582   2.622   4.326   1.554
 2412SOL    HW2 8583   2.618   4.274   1.399
 2413SOL     OW 8584   3.256   4.193   1.674
 2413SOL    HW1 8585   3.236   4.236   1.762
 2413SOL    HW2 8586   3.334   4.131   1.683
 2414SOL     OW 8587   2.835   4.614   1.572
 2414SOL    HW1 8588   2.881   4.530   1.543
 2414SOL    HW2 8589   2.779   4.648   1.497
 2415SOL     OW 8590   2.853   4.134   1.242
 2415SOL    HW1 8591   2.776   4.168   1.296
 2415SOL    HW2 8592   2.819   4.083   1.163
 2416SOL     OW 8593   2.903   4.425   0.429
 2416SOL    HW1 8594   2.929   4.421   0.525
 2416SOL    HW2 8595   2.818   4.374   0.415
 2417SOL     OW 8596   1.938   4.535   0.789
 2417SOL    HW1 8597   2.037   4.523   0.798
 2417SOL    HW2 8598   1.914   4.630   0.810
 2418SOL     OW 8599   2.727   4.072   0.195
 2418SOL    HW1 8600   2.786   4.135   0.146
 2418SOL    HW2 8601   2.746   3.978   0.166
 2419SOL     OW 8602   3.581   4.309   1.831
 2419SOL    HW1 8603   3.555   4.398   1.795
 2419SOL    HW2 8604   3.579   4.241   1.758
 2420SOL     OW 8605   3.224   4.868   0.545
 2420SOL    HW1 8606   3.307   4.839   0.497
 2420SOL    HW2 8607   3.175   4.935   0.489
 2421SOL     OW 8608   2.412   3.920   0.885
 2421SOL    HW1 8609   2.407   3.915   0.985
 2421SOL    HW2 8610   2.414   4.016   0.856
 2422SOL     OW 8611   3.657   4.790   0.873
 2422SOL    HW1 8612   3.595   4.775   0.797
 2422SOL    HW2 8613   3.605   4.801   0.958
 2423SOL     OW 8614   2.183   4.667   0.242
 2423SOL    HW1 8615   2.265   4.706   0.200
 2423SOL    HW2 8616   2.156   4.585   0.193
 2424SOL     OW 8617   3.320   4.459   0.728
 2424SOL    HW1 8618   3.315   4.394   0.803
 2424SOL    HW2 8619   3.400   4.518   0.741
 2425SOL     OW 8620   2.064   4.009   1.498
 2425SOL    HW1 8621   1.984   4.069   1.485
 2425SOL    HW2 8622   2.054   3.960   1.584
 2426SOL     OW 8623   3.494   5.101   0.081
 2426SOL    HW1 8624   3.462   5.195   0.071
 2426SOL    HW2 8625   3.418   5.038   0.069
 2427SOL     OW 8626   3.409   3.946   1.729
 2427SOL    HW1 8627   3.404   3.983   1.821
 2427SOL    HW2 8628   3.337   3.877   1.717
 2428SOL     OW 8629   2.643   3.988   1.749
 2428SOL    HW1 8630   2.710   3.927   1.792
 2428SOL    HW2 8631   2.570   4.007   1.814
 2429SOL     OW 8632   3.213   4.314   1.433
 2429SOL    HW1 8633   3.241   4.271   1.518
 2429SOL    HW2 8634   3.238   4.410   1.434
 2430SOL     OW 8635   2.665   5.126   0.924
 2430SOL    HW1 8636   2.755   5.140   0.882
 2430SOL    HW2 8637   2.594   5.128   0.853
 2431SOL     OW 8638   2.784   4.227   0.899
 2431SOL    HW1 8639   2.759   4.218   0.803
 2431SOL    HW2 8640   2.832   4.145   0.930
 2432SOL     OW 8641   2.401   3.788   0.512
 2432SOL    HW1 8642   2.320   3.789   0.570
 2432SOL    HW2 8643   2.404   3.871   0.457
 2433SOL     OW 8644   3.296   4.912   0.041
 2433SOL    HW1 8645   3.328   4.836   0.098
 2433SOL    HW2 8646   3.204   4.939   0.071
 2434SOL     OW 8647   2.797   3.960   0.480
 2434SOL    HW1 8648   2.749   4.001   0.402
 2434SOL    HW2 8649   2.896   3.958   0.461
 2435SOL     OW 8650   2.938   4.407   1.464
 2435SOL    HW1 8651   2.858   4.346   1.467
 2435SOL    HW2 8652   3.019   4.354   1.440
 2436SOL     OW 8653   3.089   5.294   0.793
 2436SOL    HW1 8654   3.110   5.368   0.728
 2436SOL    HW2 8655   3.157   5.294   0.866
 2437SOL     OW 8656   2.321   4.876   0.741
 2437SOL    HW1 8657   2.250   4.849   0.806
 2437SOL    HW2 8658   2.295   4.848   0.648
 2438SOL     OW 8659   2.894   4.273   0.016
 2438SOL    HW1 8660   2.853   4.355  -0.023
 2438SOL    HW2 8661   2.958   4.299   0.089
 2439SOL     OW 8662   1.940   4.280   1.386
 2439SOL    HW1 8663   2.032   4.279   1.345
 2439SOL    HW2 8664   1.934   4.354   1.453
 2440SOL     OW 8665   2.423   3.946   1.147
 2440SOL    HW1 8666   2.461   3.862   1.184
 2440SOL    HW2 8667   2.335   3.965   1.191
 2441SOL     OW 8668   2.728   4.178   0.642
 2441SOL    HW1 8669   2.696   4.250   0.580
 2441SOL    HW2 8670   2.752   4.097   0.589
 2442SOL     OW 8671   2.879   3.763   0.753
 2442SOL    HW1 8672   2.807   3.768   0.684
 2442SOL    HW2 8673   2.855   3.694   0.822
 2443SOL     OW 8674   3.291   4.897   0.867
 2443SOL    HW1 8675   3.236   4.813   0.860
 2443SOL    HW2 8676   3.317   4.926   0.775
 2444SOL     OW 8677   3.328   4.314   0.992
 2444SOL    HW1 8678   3.298   4.219   0.999
 2444SOL    HW2 8679   3.401   4.330   1.058
 2445SOL     OW 8680   3.719   4.557   0.377
 2445SOL    HW1 8681   3.761   4.493   0.441
 2445SOL    HW2 8682   3.681   4.506   0.299
 2446SOL     OW 8683   3.526   5.004   0.657
 2446SOL    HW1 8684   3.625   5.012   0.671
 2446SOL    HW2 8685   3.481   5.088   0.688
 2447SOL     OW 8686   3.252   4.299   0.078
 2447SOL    HW1 8687   3.198   4.278   0.159
 2447SOL    HW2 8688   3.343   4.258   0.087
 2448SOL     OW 8689   2.389   3.980   0.328
 2448SOL    HW1 8690   2.416   3.921   0.253
 2448SOL    HW2 8691   2.389   4.075   0.297
 2449SOL     OW 8692   3.616   4.947   1.588
 2449SOL    HW1 8693   3.707   4.908   1.575
 2449SOL    HW2 8694   3.624   5.043   1.612
 2450SOL     OW 8695   3.500   4.823   1.079
 2450SOL    HW1 8696   3.505   4.904   1.138
 2450SOL    HW2 8697   3.414   4.825   1.028
 2451SOL     OW 8698   2.777   3.813   1.402
 2451SOL    HW1 8699   2.802   3.793   1.307
 2451SOL    HW2 8700   2.849   3.869   1.444
 2452SOL     OW 8701   2.842   4.840   1.719
 2452SOL    HW1 8702   2.743   4.846   1.729
 2452SOL    HW2 8703   2.865   4.760   1.663
 2453SOL     OW 8704   2.567   4.774   0.368
 2453SOL    HW1 8705   2.553   4.781   0.467
 2453SOL    HW2 8706   2.651   4.723   0.350
 2454SOL     OW 8707   2.272   4.537   1.251
 2454SOL    HW1 8708   2.358   4.549   1.301
 2454SOL    HW2 8709   2.230   4.450   1.278
 2455SOL     OW 8710   2.229   4.824   0.501
 2455SOL    HW1 8711   2.222   4.907   0.445
 2455SOL    HW2 8712   2.233   4.744   0.441
 2456SOL     OW 8713   2.428   4.261   0.865
 2456SOL    HW1 8714   2.440   4.327   0.791
 2456SOL    HW2 8715   2.474   4.295   0.948
 2457SOL     OW 8716   3.444   4.363   0.472
 2457SOL    HW1 8717   3.413   4.424   0.545
 2457SOL    HW2 8718   3.494   4.415   0.403
 2458SOL     OW 8719   2.264   4.475   1.598
 2458SOL    HW1 8720   2.332   4.530   1.551
 2458SOL    HW2 8721   2.304   4.387   1.625
 2459SOL     OW 8722   3.449   4.503   1.670
 2459SOL    HW1 8723   3.357   4.541   1.665
 2459SOL    HW2 8724   3.509   4.550   1.605
 2460SOL     OW 8725   2.875   3.829   1.770
 2460SOL    HW1 8726   2.881   3.914   1.718
 2460SOL    HW2 8727   2.907   3.753   1.713
 2461SOL     OW 8728   2.366   3.774   1.740
 2461SOL    HW1 8729   2.324   3.717   1.670
 2461SOL    HW2 8730   2.300   3.843   1.772
 2462SOL     OW 8731   2.435   4.594   1.029
 2462SOL    HW1 8732   2.479   4.683   1.020
 2462SOL    HW2 8733   2.372   4.594   1.106
 2463SOL     OW 8734   3.222   4.586   1.045
 2463SOL    HW1 8735   3.147   4.586   0.979
 2463SOL    HW2 8736   3.259   4.494   1.054
 2464SOL     OW 8737   3.071   4.249   0.275
 2464SOL    HW1 8738   3.084   4.165   0.329
 2464SOL    HW2 8739   3.042   4.323   0.335
 2465SOL     OW 8740   2.169   3.937   1.231
 2465SOL    HW1 8741   2.146   3.974   1.321
 2465SOL    HW2 8742   2.139   3.842   1.225
 2466SOL     OW 8743   2.594   4.358   1.064
 2466SOL    HW1 8744   2.653   4.332   0.988
 2466SOL    HW2 8745   2.566   4.454   1.053
 2467SOL     OW 8746   3.590   4.659   1.854
 2467SOL    HW1 8747   3.544   4.652   1.765
 2467SOL    HW2 8748   3.528   4.703   1.920
 2468SOL     OW 8749   2.169   3.787   0.618
 2468SOL    HW1 8750   2.158   3.881   0.651
 2468SOL    HW2 8751   2.164   3.724   0.695
 2469SOL     OW 8752   2.885   4.490   0.966
 2469SOL    HW1 8753   2.900   4.511   1.062
 2469SOL    HW2 8754   2.855   4.395   0.957
 2470SOL     OW 8755   3.721   5.242   1.605
 2470SOL    HW1 8756   3.735   5.269   1.510
 2470SOL    HW2 8757   3.804   5.264   1.658
 2471SOL     OW 8758   2.212   4.622   1.804
 2471SOL    HW1 8759   2.288   4.666   1.852
 2471SOL    HW2 8760   2.247   4.575   1.722
 2472SOL     OW 8761   3.165   4.562   0.042
 2472SOL    HW1 8762   3.199   4.469   0.057
 2472SOL    HW2 8763   3.183   4.589  -0.053
 2473SOL     OW 8764   2.181   4.534   0.949
 2473SOL    HW1 8765   2.274   4.570   0.954
 2473SOL    HW2 8766   2.175   4.449   1.001
 2474SOL     OW 8767   2.201   4.233   1.006
 2474SOL    HW1 8768   2.149   4.150   0.989
 2474SOL    HW2 8769   2.278   4.238   0.942
 2475SOL     OW 8770   3.000   4.104   1.678
 2475SOL    HW1 8771   2.955   4.167   1.742
 2475SOL    HW2 8772   3.093   4.135   1.661
 2476SOL     OW 8773   3.022   3.931   1.477
 2476SOL    HW1 8774   3.022   3.995   1.554
 2476SOL    HW2 8775   3.050   3.979   1.394
 2477SOL     OW 8776   2.864   4.520   1.238
 2477SOL    HW1 8777   2.905   4.488   1.324
 2477SOL    HW2 8778   2.768   4.493   1.235
 2478SOL     OW 8779   1.902   4.268   1.114
 2478SOL    HW1 8780   1.987   4.235   1.073
 2478SOL    HW2 8781   1.915   4.283   1.212
 2479SOL     OW 8782   2.051   4.244   1.722
 2479SOL    HW1 8783   2.110   4.204   1.652
 2479SOL    HW2 8784   1.993   4.315   1.681
 2480SOL     OW 8785   3.231   4.674   1.660
 2480SOL    HW1 8786   3.270   4.763   1.680
 2480SOL    HW2 8787   3.241   4.654   1.563
 2481SOL     OW 8788   2.677   4.296   0.325
 2481SOL    HW1 8789   2.684   4.207   0.279
 2481SOL    HW2 8790   2.583   4.330   0.317
 2482SOL     OW 8791   3.519   4.328   1.206
 2482SOL    HW1 8792   3.481   4.259   1.268
 2482SOL    HW2 8793   3.601   4.292   1.162
 2483SOL     OW 8794   2.533   4.188   1.269
 2483SOL    HW1 8795   2.499   4.099   1.239
 2483SOL    HW2 8796   2.559   4.242   1.189
 2484SOL     OW 8797   2.335   4.224   0.191
 2484SOL    HW1 8798   2.396   4.304   0.195
 2484SOL    HW2 8799   2.240   4.255   0.198
 2485SOL     OW 8800   2.021   4.861   1.466
 2485SOL    HW1 8801   2.043   4.800   1.542
 2485SOL    HW2 8802   2.031   4.812   1.380
 2486SOL     OW 8803   3.209   4.783   1.234
 2486SOL    HW1 8804   3.233   4.720   1.160
 2486SOL    HW2 8805   3.119   4.823   1.216
 2487SOL     OW 8806   3.164   4.579   0.309
 2487SOL    HW1 8807   3.078   4.548   0.351
 2487SOL    HW2 8808   3.160   4.565   0.210
 2488SOL     OW 8809   1.945   4.982   1.022
 2488SOL    HW1 8810   1.940   4.981   1.122
 2488SOL    HW2 8811   1.862   4.941   0.984
 2489SOL     OW 8812   2.765   3.810   0.133
 2489SOL    HW1 8813   2.816   3.811   0.047
 2489SOL    HW2 8814   2.821   3.768   0.204
 2490SOL     OW 8815   3.142   4.651   0.672
 2490SOL    HW1 8816   3.202   4.570   0.674
 2490SOL    HW2 8817   3.182   4.720   0.612
 2491SOL     OW 8818   2.692   4.997   1.422
 2491SOL    HW1 8819   2.687   5.030   1.517
 2491SOL    HW2 8820   2.606   5.016   1.376
 2492SOL     OW 8821   3.703   3.899   0.963
 2492SOL    HW1 8822   3.742   3.814   0.927
 2492SOL    HW2 8823   3.605   3.901   0.944
 2493SOL     OW 8824   2.684   4.726   1.372
 2493SOL    HW1 8825   2.724   4.725   1.280
 2493SOL    HW2 8826   2.694   4.818   1.412
 2494SOL     OW 8827   2.778   4.634   0.291
 2494SOL    HW1 8828   2.841   4.672   0.223
 2494SOL    HW2 8829   2.818   4.551   0.330
 2495SOL     OW 8830   2.234   5.012   1.490
 2495SOL    HW1 8831   2.221   5.105   1.456
 2495SOL    HW2 8832   2.150   4.960   1.477
 2496SOL     OW 8833   3.476   5.016   1.289
 2496SOL    HW1 8834   3.536   5.019   1.369
 2496SOL    HW2 8835   3.401   5.080   1.302
 2497SOL     OW 8836   2.901   4.822   0.696
 2497SOL    HW1 8837   2.831   4.775   0.750
 2497SOL    HW2 8838   2.960   4.754   0.653
 2498SOL     OW 8839   2.876   3.960   0.971
 2498SOL    HW1 8840   2.868   3.924   0.878
 2498SOL    HW2 8841   2.874   3.884   1.036
 2499SOL     OW 8842   3.571   4.109   1.381
 2499SOL    HW1 8843   3.644   4.178   1.385
 2499SOL    HW2 8844   3.599   4.034   1.322
 2500SOL     OW 8845   1.967   4.737   1.726
 2500SOL    HW1 8846   1.890   4.704   1.780
 2500SOL    HW2 8847   2.052   4.707   1.768
 2501SOL     OW 8848   2.534   3.927   1.489
 2501SOL    HW1 8849   2.624   3.911   1.449
 2501SOL    HW2 8850   2.542   3.932   1.588
 2502SOL     OW 8851   3.302   4.580   1.398
 2502SOL    HW1 8852   3.245   4.632   1.335
 2502SOL    HW2 8853   3.398   4.592   1.374
 2503SOL     OW 8854   2.475   4.566   1.431
 2503SOL    HW1 8855   2.531   4.647   1.414
 2503SOL    HW2 8856   2.534   4.486   1.434
 2504SOL     OW 8857   2.578   4.289   1.708
 2504SOL    HW1 8858   2.597   4.354   1.782
 2504SOL    HW2 8859   2.638   4.209   1.717
 2505SOL     OW 8860   3.312   4.944   1.633
 2505SOL    HW1 8861   3.303   4.934   1.732
 2505SOL    HW2 8862   3.408   4.937   1.607
 2506SOL     OW 8863   3.536   4.607   1.254
 2506SOL    HW1 8864   3.509   4.518   1.217
 2506SOL    HW2 8865   3.537   4.675   1.181
 2507SOL     OW 8866   2.456   4.469   0.652
 2507SOL    HW1 8867   2.506   4.554   0.633
 2507SOL    HW2 8868   2.368   4.471   0.604
 2508SOL     OW 8869   3.639   4.066   1.642
 2508SOL    HW1 8870   3.622   4.097   1.548
 2508SOL    HW2 8871   3.555   4.029   1.680
 2509SOL     OW 8872   3.592   4.658   1.517
 2509SOL    HW1 8873   3.630   4.749   1.532
 2509SOL    HW2 8874   3.584   4.641   1.418
 2510SOL     OW 8875   2.721   4.680   0.861
 2510SOL    HW1 8876   2.775   4.611   0.909
 2510SOL    HW2 8877   2.689   4.749   0.927
 2511SOL     OW 8878   2.945   4.708   0.087
 2511SOL    HW1 8879   2.922   4.761   0.005
 2511SOL    HW2 8880   3.026   4.652   0.068
 2512SOL     OW 8881   1.941   4.964   0.653
 2512SOL    HW1 8882   1.940   4.917   0.741
 2512SOL    HW2 8883   2.023   4.936   0.602
 2513SOL     OW 8884   3.686   3.916   1.227
 2513SOL    HW1 8885   3.682   3.826   1.271
 2513SOL    HW2 8886   3.689   3.905   1.128
 2514SOL     OW 8887   2.179   4.271   1.280
 2514SOL    HW1 8888   2.217   4.212   1.352
 2514SOL    HW2 8889   2.219   4.245   1.192
 2515SOL     OW 8890   2.863   3.758   1.154
 2515SOL    HW1 8891   2.800   3.686   1.123
 2515SOL    HW2 8892   2.956   3.722   1.154
 2516SOL     OW 8893   2.632   5.054   0.301
 2516SOL    HW1 8894   2.586   4.967   0.318
 2516SOL    HW2 8895   2.723   5.051   0.342
 2517SOL     OW 8896   3.214   3.776   0.168
 2517SOL    HW1 8897   3.249   3.735   0.084
 2517SOL    HW2 8898   3.124   3.738   0.188
 2518SOL     OW 8899   1.901   4.801   0.300
 2518SOL    HW1 8900   2.000   4.790   0.291
 2518SOL    HW2 8901   1.861   4.715   0.332
 2519SOL     OW 8902   2.092   4.352   1.975
 2519SOL    HW1 8903   1.999   4.350   2.012
 2519SOL    HW2 8904   2.093   4.313   1.883
 2520SOL     OW 8905   2.087   3.999   2.858
 2520SOL    HW1 8906   2.122   3.982   2.950
 2520SOL    HW2 8907   1.999   3.954   2.846
 2521SOL     OW 8908   1.881   4.092   2.509
 2521SOL    HW1 8909   1.799   4.135   2.548
 2521SOL    HW2 8910   1.853   4.019   2.446
 2522SOL     OW 8911   3.417   5.235   2.565
 2522SOL    HW1 8912   3.360   5.219   2.646
 2522SOL    HW2 8913   3.358   5.245   2.485
 2523SOL     OW 8914   2.997   4.427   2.579
 2523SOL    HW1 8915   3.054   4.505   2.554
 2523SOL    HW2 8916   2.937   4.453   2.655
 2524SOL     OW 8917   3.617   4.331   2.093
 2524SOL    HW1 8918   3.605   4.318   1.994
 2524SOL    HW2 8919   3.587   4.250   2.142
 2525SOL     OW 8920   2.712   4.522   3.685
 2525SOL    HW1 8921   2.708   4.598   3.750
 2525SOL    HW2 8922   2.734   4.558   3.594
 2526SOL     OW 8923   2.548   4.885   3.665
 2526SOL    HW1 8924   2.608   4.964   3.679
 2526SOL    HW2 8925   2.462   4.916   3.624
 2527SOL     OW 8926   2.300   4.116   3.361
 2527SOL    HW1 8927   2.382   4.060   3.370
 2527SOL    HW2 8928   2.219   4.058   3.365
 2528SOL     OW 8929   3.465   4.171   2.599
 2528SOL    HW1 8930   3.391   4.217   2.549
 2528SOL    HW2 8931   3.516   4.239   2.652
 2529SOL     OW 8932   2.468   4.688   1.985
 2529SOL    HW1 8933   2.475   4.772   1.931
 2529SOL    HW2 8934   2.514   4.701   2.073
 2530SOL     OW 8935   3.456   3.838   3.342
 2530SOL    HW1 8936   3.438   3.905   3.270
 2530SOL    HW2 8937   3.453   3.884   3.431
 2531SOL     OW 8938   1.984   4.367   2.425
 2531SOL    HW1 8939   1.939   4.279   2.442
 2531SOL    HW2 8940   1.983   4.421   2.509
 2532SOL     OW 8941   3.551   4.646   2.474
 2532SOL    HW1 8942   3.646   4.617   2.482
 2532SOL    HW2 8943   3.543   4.711   2.399
 2533SOL     OW 8944   3.503   4.832   2.294
 2533SOL    HW1 8945   3.589   4.834   2.242
 2533SOL    HW2 8946   3.517   4.879   2.382
 2534SOL     OW 8947   1.975   4.461   3.459
 2534SOL    HW1 8948   2.063   4.448   3.504
 2534SOL    HW2 8949   1.962   4.558   3.437
 2535SOL     OW 8950   2.671   3.728   2.364
 2535SOL    HW1 8951   2.711   3.819   2.355
 2535SOL    HW2 8952   2.571   3.736   2.370
 2536SOL     OW 8953   2.059   4.700   3.126
 2536SOL    HW1 8954   2.148   4.655   3.112
 2536SOL    HW2 8955   1.986   4.635   3.107
 2537SOL     OW 8956   3.387   4.723   2.052
 2537SOL    HW1 8957   3.324   4.647   2.065
 2537SOL    HW2 8958   3.435   4.741   2.138
 2538SOL     OW 8959   3.328   5.141   2.815
 2538SOL    HW1 8960   3.269   5.147   2.895
 2538SOL    HW2 8961   3.313   5.053   2.769
 2539SOL     OW 8962   2.460   4.453   2.132
 2539SOL    HW1 8963   2.484   4.522   2.064
 2539SOL    HW2 8964   2.382   4.486   2.186
 2540SOL     OW 8965   3.143   4.069   2.806
 2540SOL    HW1 8966   3.057   4.019   2.793
 2540SOL    HW2 8967   3.205   4.015   2.862
 2541SOL     OW 8968   3.256   4.193   3.536
 2541SOL    HW1 8969   3.236   4.236   3.624
 2541SOL    HW2 8970   3.334   4.131   3.545
 2542SOL     OW 8971   2.835   4.614   3.434
 2542SOL    HW1 8972   2.881   4.530   3.405
 2542SOL    HW2 8973   2.779   4.648   3.359
 2543SOL     OW 8974   2.903   4.425   2.291
 2543SOL    HW1 8975   2.929   4.421   2.387
 2543SOL    HW2 8976   2.818   4.374   2.277
 2544SOL     OW 8977   2.727   4.072   2.057
 2544SOL    HW1 8978   2.786   4.135   2.008
 2544SOL    HW2 8979   2.746   3.978   2.028
 2545SOL     OW 8980   3.224   4.868   2.407
 2545SOL    HW1 8981   3.307   4.839   2.359
 2545SOL    HW2 8982   3.175   4.935   2.351
 2546SOL     OW 8983   2.412   3.920   2.747
 2546SOL    HW1 8984   2.407   3.915   2.847
 2546SOL    HW2 8985   2.414   4.016   2.718
 2547SOL     OW 8986   3.657   4.790   2.735
 2547SOL    HW1 8987   3.595   4.775   2.659
 2547SOL    HW2 8988   3.605   4.801   2.820
 2548SOL     OW 8989   2.183   4.667   2.104
 2548SOL    HW1 8990   2.265   4.706   2.062
 2548SOL    HW2 8991   2.156   4.585   2.055
 2549SOL     OW 8992   3.320   4.459   2.590
 2549SOL    HW1 8993   3.315   4.394   2.665
 2549SOL    HW2 8994   3.400   4.518   2.603
 2550SOL     OW 8995   2.064   4.009   3.360
 2550SOL    HW1 8996   1.984   4.069   3.347
 2550SOL    HW2 8997   2.054   3.960   3.446
 2551SOL     OW 8998   3.494   5.101   1.943
 2551SOL    HW1 8999   3.462   5.195   1.933
 2551SOL    HW2 9000   3.418   5.038   1.931
 2552SOL     OW 9001   3.262   3.831   2.288
 2552SOL    HW1 9002   3.238   3.794   2.198
 2552SOL    HW2 9003   3.361   3.847   2.292
 2553SOL     OW 9004   2.244   4.424   2.342
 2553SOL    HW1 9005   2.289   4.334   2.339
 2553SOL    HW2 9006   2.150   4.413   2.375
 2554SOL     OW 9007   3.409   3.946   3.591
 2554SOL    HW1 9008   3.404   3.983   3.683
 2554SOL    HW2 9009   3.337   3.877   3.579
 2555SOL     OW 9010   2.476   3.846   1.979
 2555SOL    HW1 9011   2.574   3.824   1.986
 2555SOL    HW2 9012   2.445   3.829   1.886
 2556SOL     OW 9013   3.213   4.314   3.295
 2556SOL    HW1 9014   3.241   4.271   3.380
 2556SOL    HW2 9015   3.238   4.410   3.296
 2557SOL     OW 9016   2.665   5.126   2.786
 2557SOL    HW1 9017   2.755   5.140   2.744
 2557SOL    HW2 9018   2.594   5.128   2.715
 2558SOL     OW 9019   2.784   4.227   2.761
 2558SOL    HW1 9020   2.759   4.218   2.665
 2558SOL    HW2 9021   2.832   4.145   2.792
 2559SOL     OW 9022   2.401   3.788   2.374
 2559SOL    HW1 9023   2.320   3.789   2.432
 2559SOL    HW2 9024   2.404   3.871   2.319
 2560SOL     OW 9025   3.296   4.912   1.903
 2560SOL    HW1 9026   3.328   4.836   1.960
 2560SOL    HW2 9027   3.204   4.939   1.933
 2561SOL     OW 9028   2.159   3.759   2.033
 2561SOL    HW1 9029   2.208   3.843   2.012
 2561SOL    HW2 9030   2.221   3.694   2.078
 2562SOL     OW 9031   2.797   3.960   2.342
 2562SOL    HW1 9032   2.749   4.001   2.264
 2562SOL    HW2 9033   2.896   3.958   2.323
 2563SOL     OW 9034   2.938   4.407   3.326
 2563SOL    HW1 9035   2.858   4.346   3.329
 2563SOL    HW2 9036   3.019   4.354   3.302
 2564SOL     OW 9037   3.089   5.294   2.655
 2564SOL    HW1 9038   3.110   5.368   2.590
 2564SOL    HW2 9039   3.157   5.294   2.728
 2565SOL     OW 9040   2.321   4.876   2.603
 2565SOL    HW1 9041   2.250   4.849   2.668
 2565SOL    HW2 9042   2.295   4.848   2.510
 2566SOL     OW 9043   2.894   4.273   1.878
 2566SOL    HW1 9044   2.853   4.355   1.839
 2566SOL    HW2 9045   2.958   4.299   1.951
 2567SOL     OW 9046   1.940   4.280   3.248
 2567SOL    HW1 9047   2.032   4.279   3.207
 2567SOL    HW2 9048   1.934   4.354   3.315
 2568SOL     OW 9049   2.423   3.946   3.009
 2568SOL    HW1 9050   2.461   3.862   3.046
 2568SOL    HW2 9051   2.335   3.965   3.053
 2569SOL     OW 9052   2.728   4.178   2.504
 2569SOL    HW1 9053   2.696   4.250   2.442
 2569SOL    HW2 9054   2.752   4.097   2.451
 2570SOL     OW 9055   2.879   3.763   2.615
 2570SOL    HW1 9056   2.807   3.768   2.546
 2570SOL    HW2 9057   2.855   3.694   2.684
 2571SOL     OW 9058   3.291   4.897   2.729
 2571SOL    HW1 9059   3.236   4.813   2.722
 2571SOL    HW2 9060   3.317   4.926   2.637
 2572SOL     OW 9061   3.328   4.314   2.854
 2572SOL    HW1 9062   3.298   4.219   2.861
 2572SOL    HW2 9063   3.401   4.330   2.920
 2573SOL     OW 9064   3.719   4.557   2.239
 2573SOL    HW1 9065   3.761   4.493   2.303
 2573SOL    HW2 9066   3.681   4.506   2.161
 2574SOL     OW 9067   3.526   5.004   2.519
 2574SOL    HW1 9068   3.625   5.012   2.533
 2574SOL    HW2 9069   3.481   5.088   2.550
 2575SOL     OW 9070   3.252   4.299   1.940
 2575SOL    HW1 9071   3.198   4.278   2.021
 2575SOL    HW2 9072   3.343   4.258   1.949
 2576SOL     OW 9073   2.389   3.980   2.190
 2576SOL    HW1 9074   2.416   3.921   2.115
 2576SOL    HW2 9075   2.389   4.075   2.159
 2577SOL     OW 9076   3.500   4.823   2.941
 2577SOL    HW1 9077   3.505   4.904   3.000
 2577SOL    HW2 9078   3.414   4.825   2.890
 2578SOL     OW 9079   2.842   4.840   3.581
 2578SOL    HW1 9080   2.743   4.846   3.591
 2578SOL    HW2 9081   2.865   4.760   3.525
 2579SOL     OW 9082   2.567   4.774   2.230
 2579SOL    HW1 9083   2.553   4.781   2.329
 2579SOL    HW2 9084   2.651   4.723   2.212
 2580SOL     OW 9085   2.272   4.537   3.113
 2580SOL    HW1 9086   2.358   4.549   3.163
 2580SOL    HW2 9087   2.230   4.450   3.140
 2581SOL     OW 9088   3.136   4.110   3.124
 2581SOL    HW1 9089   3.157   4.184   3.188
 2581SOL    HW2 9090   3.047   4.127   3.081
 2582SOL     OW 9091   2.229   4.824   2.363
 2582SOL    HW1 9092   2.222   4.907   2.307
 2582SOL    HW2 9093   2.233   4.744   2.303
 2583SOL     OW 9094   2.428   4.261   2.727
 2583SOL    HW1 9095   2.440   4.327   2.653
 2583SOL    HW2 9096   2.474   4.295   2.810
 2584SOL     OW 9097   3.444   4.363   2.334
 2584SOL    HW1 9098   3.413   4.424   2.407
 2584SOL    HW2 9099   3.494   4.415   2.265
 2585SOL     OW 9100   2.264   4.475   3.460
 2585SOL    HW1 9101   2.332   4.530   3.413
 2585SOL    HW2 9102   2.304   4.387   3.487
 2586SOL     OW 9103   2.875   3.829   3.632
 2586SOL    HW1 9104   2.881   3.914   3.580
 2586SOL    HW2 9105   2.907   3.753   3.575
 2587SOL     OW 9106   3.222   4.586   2.907
 2587SOL    HW1 9107   3.147   4.586   2.841
 2587SOL    HW2 9108   3.259   4.494   2.916
 2588SOL     OW 9109   3.071   4.249   2.137
 2588SOL    HW1 9110   3.084   4.165   2.191
 2588SOL    HW2 9111   3.042   4.323   2.197
 2589SOL     OW 9112   2.169   3.937   3.093
 2589SOL    HW1 9113   2.146   3.974   3.183
 2589SOL    HW2 9114   2.139   3.842   3.087
 2590SOL     OW 9115   2.169   3.787   2.480
 2590SOL    HW1 9116   2.158   3.881   2.513
 2590SOL    HW2 9117   2.164   3.724   2.557
 2591SOL     OW 9118   3.484   4.091   2.236
 2591SOL    HW1 9119   3.486   4.015   2.300
 2591SOL    HW2 9120   3.436   4.168   2.276
 2592SOL     OW 9121   2.885   4.490   2.828
 2592SOL    HW1 9122   2.900   4.511   2.924
 2592SOL    HW2 9123   2.855   4.395   2.819
 2593SOL     OW 9124   3.721   5.242   3.467
 2593SOL    HW1 9125   3.735   5.269   3.372
 2593SOL    HW2 9126   3.804   5.264   3.520
 2594SOL     OW 9127   2.212   4.622   3.666
 2594SOL    HW1 9128   2.288   4.666   3.714
 2594SOL    HW2 9129   2.247   4.575   3.584
 2595SOL     OW 9130   3.402   3.998   1.987
 2595SOL    HW1 9131   3.341   3.923   2.010
 2595SOL    HW2 9132   3.424   4.050   2.070
 2596SOL     OW 9133   3.165   4.562   1.904
 2596SOL    HW1 9134   3.199   4.469   1.919
 2596SOL    HW2 9135   3.183   4.589   1.809
 2597SOL     OW 9136   2.201   4.233   2.868
 2597SOL    HW1 9137   2.149   4.150   2.851
 2597SOL    HW2 9138   2.278   4.238   2.804
 2598SOL     OW 9139   3.000   4.104   3.540
 2598SOL    HW1 9140   2.955   4.167   3.604
 2598SOL    HW2 9141   3.093   4.135   3.523
 2599SOL     OW 9142   3.022   3.931   3.339
 2599SOL    HW1 9143   3.022   3.995   3.416
 2599SOL    HW2 9144   3.050   3.979   3.256
 2600SOL     OW 9145   1.870   5.050   2.062
 2600SOL    HW1 9146   1.777   5.071   2.031
 2600SOL    HW2 9147   1.880   4.951   2.075
 2601SOL     OW 9148   2.864   4.520   3.100
 2601SOL    HW1 9149   2.905   4.488   3.186
 2601SOL    HW2 9150   2.768   4.493   3.097
 2602SOL     OW 9151   1.902   4.268   2.976
 2602SOL    HW1 9152   1.987   4.235   2.935
 2602SOL    HW2 9153   1.915   4.283   3.074
 2603SOL     OW 9154   2.051   4.244   3.584
 2603SOL    HW1 9155   2.110   4.204   3.514
 2603SOL    HW2 9156   1.993   4.315   3.543
 2604SOL     OW 9157   2.677   4.296   2.187
 2604SOL    HW1 9158   2.684   4.207   2.141
 2604SOL    HW2 9159   2.583   4.330   2.179
 2605SOL     OW 9160   3.519   4.328   3.068
 2605SOL    HW1 9161   3.481   4.259   3.130
 2605SOL    HW2 9162   3.601   4.292   3.024
 2606SOL     OW 9163   2.335   4.224   2.053
 2606SOL    HW1 9164   2.396   4.304   2.057
 2606SOL    HW2 9165   2.240   4.255   2.060
 2607SOL     OW 9166   2.021   4.861   3.328
 2607SOL    HW1 9167   2.043   4.800   3.404
 2607SOL    HW2 9168   2.031   4.812   3.242
 2608SOL     OW 9169   3.209   4.783   3.096
 2608SOL    HW1 9170   3.233   4.720   3.022
 2608SOL    HW2 9171   3.119   4.823   3.078
 2609SOL     OW 9172   3.164   4.579   2.171
 2609SOL    HW1 9173   3.078   4.548   2.213
 2609SOL    HW2 9174   3.160   4.565   2.072
 2610SOL     OW 9175   3.588   3.859   2.385
 2610SOL    HW1 9176   3.661   3.842   2.318
 2610SOL    HW2 9177   3.557   3.772   2.423
 2611SOL     OW 9178   3.142   4.651   2.534
 2611SOL    HW1 9179   3.202   4.570   2.536
 2611SOL    HW2 9180   3.182   4.720   2.474
 2612SOL     OW 9181   2.692   4.997   3.284
 2612SOL    HW1 9182   2.687   5.030   3.379
 2612SOL    HW2 9183   2.606   5.016   3.238
 2613SOL     OW 9184   3.703   3.899   2.825
 2613SOL    HW1 9185   3.742   3.814   2.789
 2613SOL    HW2 9186   3.605   3.901   2.806
 2614SOL     OW 9187   2.125   4.050   2.582
 2614SOL    HW1 9188   2.046   4.101   2.548
 2614SOL    HW2 9189   2.116   4.035   2.680
 2615SOL     OW 9190   3.056   5.336   1.893
 2615SOL    HW1 9191   3.062   5.243   1.930
 2615SOL    HW2 9192   2.997   5.336   1.813
 2616SOL     OW 9193   2.684   4.726   3.234
 2616SOL    HW1 9194   2.724   4.725   3.142
 2616SOL    HW2 9195   2.694   4.818   3.274
 2617SOL     OW 9196   2.778   4.634   2.153
 2617SOL    HW1 9197   2.841   4.672   2.085
 2617SOL    HW2 9198   2.818   4.551   2.192
 2618SOL     OW 9199   2.234   5.012   3.352
 2618SOL    HW1 9200   2.221   5.105   3.318
 2618SOL    HW2 9201   2.150   4.960   3.339
 2619SOL     OW 9202   2.901   4.822   2.558
 2619SOL    HW1 9203   2.831   4.775   2.612
 2619SOL    HW2 9204   2.960   4.754   2.515
 2620SOL     OW 9205   2.876   3.960   2.833
 2620SOL    HW1 9206   2.868   3.924   2.740
 2620SOL    HW2 9207   2.874   3.884   2.898
 2621SOL     OW 9208   3.571   4.109   3.243
 2621SOL    HW1 9209   3.644   4.178   3.247
 2621SOL    HW2 9210   3.599   4.034   3.184
 2622SOL     OW 9211   1.967   4.737   3.588
 2622SOL    HW1 9212   1.890   4.704   3.642
 2622SOL    HW2 9213   2.052   4.707   3.630
 2623SOL     OW 9214   1.937   4.069   1.895
 2623SOL    HW1 9215   1.845   4.041   1.866
 2623SOL    HW2 9216   1.968   4.146   1.839
 2624SOL     OW 9217   3.302   4.580   3.260
 2624SOL    HW1 9218   3.245   4.632   3.197
 2624SOL    HW2 9219   3.398   4.592   3.236
 2625SOL     OW 9220   1.934   3.890   2.180
 2625SOL    HW1 9221   1.917   3.973   2.126
 2625SOL    HW2 9222   2.024   3.853   2.158
 2626SOL     OW 9223   2.475   4.566   3.293
 2626SOL    HW1 9224   2.531   4.647   3.276
 2626SOL    HW2 9225   2.534   4.486   3.296
 2627SOL     OW 9226   2.578   4.289   3.570
 2627SOL    HW1 9227   2.597   4.354   3.644
 2627SOL    HW2 9228   2.638   4.209   3.579
 2628SOL     OW 9229   3.536   4.607   3.116
 2628SOL    HW1 9230   3.509   4.518   3.079
 2628SOL    HW2 9231   3.537   4.675   3.043
 2629SOL     OW 9232   3.087   4.049   2.311
 2629SOL    HW1 9233   3.152   3.975   2.300
 2629SOL    HW2 9234   3.107   4.099   2.395
 2630SOL     OW 9235   3.639   4.066   3.504
 2630SOL    HW1 9236   3.622   4.097   3.410
 2630SOL    HW2 9237   3.555   4.029   3.542
 2631SOL     OW 9238   2.945   4.708   1.949
 2631SOL    HW1 9239   2.922   4.761   1.867
 2631SOL    HW2 9240   3.026   4.652   1.930
 2632SOL     OW 9241   1.941   4.964   2.515
 2632SOL    HW1 9242   1.940   4.917   2.603
 2632SOL    HW2 9243   2.023   4.936   2.464
 2633SOL     OW 9244   3.686   3.916   3.089
 2633SOL    HW1 9245   3.682   3.826   3.133
 2633SOL    HW2 9246   3.689   3.905   2.990
 2634SOL     OW 9247   2.290   4.148   2.382
 2634SOL    HW1 9248   2.320   4.076   2.320
 2634SOL    HW2 9249   2.251   4.108   2.465
 2635SOL     OW 9250   2.179   4.271   3.142
 2635SOL    HW1 9251   2.217   4.212   3.214
 2635SOL    HW2 9252   2.219   4.245   3.054
 2636SOL     OW 9253   3.286   3.938   2.974
 2636SOL    HW1 9254   3.338   3.873   3.029
 2636SOL    HW2 9255   3.237   4.001   3.035
 2637SOL     OW 9256   2.863   3.758   3.016
 2637SOL    HW1 9257   2.800   3.686   2.985
 2637SOL    HW2 9258   2.956   3.722   3.016
 2638SOL     OW 9259   2.632   5.054   2.163
 2638SOL    HW1 9260   2.586   4.967   2.180
 2638SOL    HW2 9261   2.723   5.051   2.204
 2639SOL     OW 9262   3.214   3.776   2.030
 2639SOL    HW1 9263   3.249   3.735   1.946
 2639SOL    HW2 9264   3.124   3.738   2.050
 2640SOL     OW 9265   3.162   4.177   2.553
 2640SOL    HW1 9266   3.103   4.257   2.557
 2640SOL    HW2 9267   3.177   4.142   2.646
 2641SOL     OW 9268   3.455   3.945   2.744
 2641SOL    HW1 9269   3.371   3.944   2.798
 2641SOL    HW2 9270   3.457   4.028   2.688
 2642SOL     OW 9271   1.901   4.801   2.162
 2642SOL    HW1 9272   2.000   4.790   2.153
 2642SOL    HW2 9273   1.861   4.715   2.194
 2643SOL     OW 9274   2.092   4.352   3.837
 2643SOL    HW1 9275   1.999   4.350   3.874
 2643SOL    HW2 9276   2.093   4.313   3.745
 2644SOL     OW 9277   2.087   3.999   4.720
 2644SOL    HW1 9278   2.122   3.982   4.812
 2644SOL    HW2 9279   1.999   3.954   4.708
 2645SOL     OW 9280   1.881   4.092   4.371
 2645SOL    HW1 9281   1.799   4.135   4.410
 2645SOL    HW2 9282   1.853   4.019   4.308
 2646SOL     OW 9283   2.431   4.999   4.889
 2646SOL    HW1 9284   2.338   4.992   4.852
 2646SOL    HW2 9285   2.442   5.088   4.933
 2647SOL     OW 9286   3.417   5.235   4.427
 2647SOL    HW1 9287   3.360   5.219   4.508
 2647SOL    HW2 9288   3.358   5.245   4.347
 2648SOL     OW 9289   2.630   4.868   4.747
 2648SOL    HW1 9290   2.552   4.885   4.807
 2648SOL    HW2 9291   2.664   4.955   4.711
 2649SOL     OW 9292   2.197   5.159   4.785
 2649SOL    HW1 9293   2.119   5.128   4.732
 2649SOL    HW2 9294   2.255   5.217   4.728
 2650SOL     OW 9295   3.465   4.171   4.461
 2650SOL    HW1 9296   3.391   4.217   4.411
 2650SOL    HW2 9297   3.516   4.239   4.514
 2651SOL     OW 9298   2.102   4.815   4.610
 2651SOL    HW1 9299   2.116   4.731   4.662
 2651SOL    HW2 9300   2.047   4.879   4.665
 2652SOL     OW 9301   2.468   4.688   3.847
 2652SOL    HW1 9302   2.475   4.772   3.793
 2652SOL    HW2 9303   2.514   4.701   3.935
 2653SOL     OW 9304   1.984   4.367   4.287
 2653SOL    HW1 9305   1.939   4.279   4.304
 2653SOL    HW2 9306   1.983   4.421   4.371
 2654SOL     OW 9307   3.551   4.646   4.336
 2654SOL    HW1 9308   3.646   4.617   4.344
 2654SOL    HW2 9309   3.543   4.711   4.261
 2655SOL     OW 9310   3.503   4.832   4.156
 2655SOL    HW1 9311   3.589   4.834   4.104
 2655SOL    HW2 9312   3.517   4.879   4.244
 2656SOL     OW 9313   2.671   3.728   4.226
 2656SOL    HW1 9314   2.711   3.819   4.217
 2656SOL    HW2 9315   2.571   3.736   4.232
 2657SOL     OW 9316   2.059   4.700   4.988
 2657SOL    HW1 9317   2.148   4.655   4.974
 2657SOL    HW2 9318   1.986   4.635   4.969
 2658SOL     OW 9319   3.387   4.723   3.914
 2658SOL    HW1 9320   3.324   4.647   3.927
 2658SOL    HW2 9321   3.435   4.741   4.000
 2659SOL     OW 9322   3.328   5.141   4.677
 2659SOL    HW1 9323   3.269   5.147   4.757
 2659SOL    HW2 9324   3.313   5.053   4.631
 2660SOL     OW 9325   2.460   4.453   3.994
 2660SOL    HW1 9326   2.484   4.522   3.926
 2660SOL    HW2 9327   2.382   4.486   4.048
 2661SOL     OW 9328   3.143   4.069   4.668
 2661SOL    HW1 9329   3.057   4.019   4.655
 2661SOL    HW2 9330   3.205   4.015   4.724
 2662SOL     OW 9331   2.853   4.134   4.966
 2662SOL    HW1 9332   2.776   4.168   5.020
 2662SOL    HW2 9333   2.819   4.083   4.887
 2663SOL     OW 9334   1.938   4.535   4.513
 2663SOL    HW1 9335   2.037   4.523   4.522
 2663SOL    HW2 9336   1.914   4.630   4.534
 2664SOL     OW 9337   3.224   4.868   4.269
 2664SOL    HW1 9338   3.307   4.839   4.221
 2664SOL    HW2 9339   3.175   4.935   4.213
 2665SOL     OW 9340   3.657   4.790   4.597
 2665SOL    HW1 9341   3.595   4.775   4.521
 2665SOL    HW2 9342   3.605   4.801   4.682
 2666SOL     OW 9343   2.183   4.667   3.966
 2666SOL    HW1 9344   2.265   4.706   3.924
 2666SOL    HW2 9345   2.156   4.585   3.917
 2667SOL     OW 9346   3.320   4.459   4.452
 2667SOL    HW1 9347   3.315   4.394   4.527
 2667SOL    HW2 9348   3.400   4.518   4.465
 2668SOL     OW 9349   3.262   3.831   4.150
 2668SOL    HW1 9350   3.238   3.794   4.060
 2668SOL    HW2 9351   3.361   3.847   4.154
 2669SOL     OW 9352   2.244   4.424   4.204
 2669SOL    HW1 9353   2.289   4.334   4.201
 2669SOL    HW2 9354   2.150   4.413   4.237
 2670SOL     OW 9355   2.665   5.126   4.648
 2670SOL    HW1 9356   2.755   5.140   4.606
 2670SOL    HW2 9357   2.594   5.128   4.577
 2671SOL     OW 9358   2.401   3.788   4.236
 2671SOL    HW1 9359   2.320   3.789   4.294
 2671SOL    HW2 9360   2.404   3.871   4.181
 2672SOL     OW 9361   3.296   4.912   3.765
 2672SOL    HW1 9362   3.328   4.836   3.822
 2672SOL    HW2 9363   3.204   4.939   3.795
 2673SOL     OW 9364   2.797   3.960   4.204
 2673SOL    HW1 9365   2.749   4.001   4.126
 2673SOL    HW2 9366   2.896   3.958   4.185
 2674SOL     OW 9367   3.089   5.294   4.517
 2674SOL    HW1 9368   3.110   5.368   4.452
 2674SOL    HW2 9369   3.157   5.294   4.590
 2675SOL     OW 9370   2.321   4.876   4.465
 2675SOL    HW1 9371   2.250   4.849   4.530
 2675SOL    HW2 9372   2.295   4.848   4.372
 2676SOL     OW 9373   2.894   4.273   3.740
 2676SOL    HW1 9374   2.853   4.355   3.701
 2676SOL    HW2 9375   2.958   4.299   3.813
 2677SOL     OW 9376   2.423   3.946   4.871
 2677SOL    HW1 9377   2.461   3.862   4.908
 2677SOL    HW2 9378   2.335   3.965   4.915
 2678SOL     OW 9379   2.879   3.763   4.477
 2678SOL    HW1 9380   2.807   3.768   4.408
 2678SOL    HW2 9381   2.855   3.694   4.546
 2679SOL     OW 9382   3.291   4.897   4.591
 2679SOL    HW1 9383   3.236   4.813   4.584
 2679SOL    HW2 9384   3.317   4.926   4.499
 2680SOL     OW 9385   3.719   4.557   4.101
 2680SOL    HW1 9386   3.761   4.493   4.165
 2680SOL    HW2 9387   3.681   4.506   4.023
 2681SOL     OW 9388   3.526   5.004   4.381
 2681SOL    HW1 9389   3.625   5.012   4.395
 2681SOL    HW2 9390   3.481   5.088   4.412
 2682SOL     OW 9391   3.252   4.299   3.802
 2682SOL    HW1 9392   3.198   4.278   3.883
 2682SOL    HW2 9393   3.343   4.258   3.811
 2683SOL     OW 9394   2.389   3.980   4.052
 2683SOL    HW1 9395   2.416   3.921   3.977
 2683SOL    HW2 9396   2.389   4.075   4.021
 2684SOL     OW 9397   3.500   4.823   4.803
 2684SOL    HW1 9398   3.505   4.904   4.862
 2684SOL    HW2 9399   3.414   4.825   4.752
 2685SOL     OW 9400   2.567   4.774   4.092
 2685SOL    HW1 9401   2.553   4.781   4.191
 2685SOL    HW2 9402   2.651   4.723   4.074
 2686SOL     OW 9403   2.272   4.537   4.975
 2686SOL    HW1 9404   2.358   4.549   5.025
 2686SOL    HW2 9405   2.230   4.450   5.002
 2687SOL     OW 9406   3.136   4.110   4.986
 2687SOL    HW1 9407   3.157   4.184   5.050
 2687SOL    HW2 9408   3.047   4.127   4.943
 2688SOL     OW 9409   2.229   4.824   4.225
 2688SOL    HW1 9410   2.222   4.907   4.169
 2688SOL    HW2 9411   2.233   4.744   4.165
 2689SOL     OW 9412   3.444   4.363   4.196
 2689SOL    HW1 9413   3.413   4.424   4.269
 2689SOL    HW2 9414   3.494   4.415   4.127
 2690SOL     OW 9415   2.435   4.594   4.753
 2690SOL    HW1 9416   2.479   4.683   4.744
 2690SOL    HW2 9417   2.372   4.594   4.830
 2691SOL     OW 9418   3.071   4.249   3.999
 2691SOL    HW1 9419   3.084   4.165   4.053
 2691SOL    HW2 9420   3.042   4.323   4.059
 2692SOL     OW 9421   2.169   3.937   4.955
 2692SOL    HW1 9422   2.146   3.974   5.045
 2692SOL    HW2 9423   2.139   3.842   4.949
 2693SOL     OW 9424   2.594   4.358   4.788
 2693SOL    HW1 9425   2.653   4.332   4.712
 2693SOL    HW2 9426   2.566   4.454   4.777
 2694SOL     OW 9427   2.169   3.787   4.342
 2694SOL    HW1 9428   2.158   3.881   4.375
 2694SOL    HW2 9429   2.164   3.724   4.419
 2695SOL     OW 9430   3.484   4.091   4.098
 2695SOL    HW1 9431   3.486   4.015   4.162
 2695SOL    HW2 9432   3.436   4.168   4.138
 2696SOL     OW 9433   2.885   4.490   4.690
 2696SOL    HW1 9434   2.900   4.511   4.786
 2696SOL    HW2 9435   2.855   4.395   4.681
 2697SOL     OW 9436   3.402   3.998   3.849
 2697SOL    HW1 9437   3.341   3.923   3.872
 2697SOL    HW2 9438   3.424   4.050   3.932
 2698SOL     OW 9439   3.165   4.562   3.766
 2698SOL    HW1 9440   3.199   4.469   3.781
 2698SOL    HW2 9441   3.183   4.589   3.671
 2699SOL     OW 9442   2.181   4.534   4.673
 2699SOL    HW1 9443   2.274   4.570   4.678
 2699SOL    HW2 9444   2.175   4.449   4.725
 2700SOL     OW 9445   2.201   4.233   4.730
 2700SOL    HW1 9446   2.149   4.150   4.713
 2700SOL    HW2 9447   2.278   4.238   4.666
 2701SOL     OW 9448   3.022   3.931   5.201
 2701SOL    HW1 9449   3.022   3.995   5.278
 2701SOL    HW2 9450   3.050   3.979   5.118
 2702SOL     OW 9451   1.870   5.050   3.924
 2702SOL    HW1 9452   1.777   5.071   3.893
 2702SOL    HW2 9453   1.880   4.951   3.937
 2703SOL     OW 9454   2.864   4.520   4.962
 2703SOL    HW1 9455   2.905   4.488   5.048
 2703SOL    HW2 9456   2.768   4.493   4.959
 2704SOL     OW 9457   1.902   4.268   4.838
 2704SOL    HW1 9458   1.987   4.235   4.797
 2704SOL    HW2 9459   1.915   4.283   4.936
 2705SOL     OW 9460   3.519   4.328   4.930
 2705SOL    HW1 9461   3.481   4.259   4.992
 2705SOL    HW2 9462   3.601   4.292   4.886
 2706SOL     OW 9463   2.533   4.188   4.993
 2706SOL    HW1 9464   2.499   4.099   4.963
 2706SOL    HW2 9465   2.559   4.242   4.913
 2707SOL     OW 9466   2.335   4.224   3.915
 2707SOL    HW1 9467   2.396   4.304   3.919
 2707SOL    HW2 9468   2.240   4.255   3.922
 2708SOL     OW 9469   3.209   4.783   4.958
 2708SOL    HW1 9470   3.233   4.720   4.884
 2708SOL    HW2 9471   3.119   4.823   4.940
 2709SOL     OW 9472   3.164   4.579   4.033
 2709SOL    HW1 9473   3.078   4.548   4.075
 2709SOL    HW2 9474   3.160   4.565   3.934
 2710SOL     OW 9475   1.945   4.982   4.746
 2710SOL    HW1 9476   1.940   4.981   4.846
 2710SOL    HW2 9477   1.862   4.941   4.708
 2711SOL     OW 9478   3.588   3.859   4.247
 2711SOL    HW1 9479   3.661   3.842   4.180
 2711SOL    HW2 9480   3.557   3.772   4.285
 2712SOL     OW 9481   2.692   4.997   5.146
 2712SOL    HW1 9482   2.687   5.030   5.241
 2712SOL    HW2 9483   2.606   5.016   5.100
 2713SOL     OW 9484   3.703   3.899   4.687
 2713SOL    HW1 9485   3.742   3.814   4.651
 2713SOL    HW2 9486   3.605   3.901   4.668
 2714SOL     OW 9487   2.125   4.050   4.444
 2714SOL    HW1 9488   2.046   4.101   4.410
 2714SOL    HW2 9489   2.116   4.035   4.542
 2715SOL     OW 9490   3.056   5.336   3.755
 2715SOL    HW1 9491   3.062   5.243   3.792
 2715SOL    HW2 9492   2.997   5.336   3.675
 2716SOL     OW 9493   2.684   4.726   5.096
 2716SOL    HW1 9494   2.724   4.725   5.004
 2716SOL    HW2 9495   2.694   4.818   5.136
 2717SOL     OW 9496   2.778   4.634   4.015
 2717SOL    HW1 9497   2.841   4.672   3.947
 2717SOL    HW2 9498   2.818   4.551   4.054
 2718SOL     OW 9499   2.876   3.960   4.695
 2718SOL    HW1 9500   2.868   3.924   4.602
 2718SOL    HW2 9501   2.874   3.884   4.760
 2719SOL     OW 9502   3.571   4.109   5.105
 2719SOL    HW1 9503   3.644   4.178   5.109
 2719SOL    HW2 9504   3.599   4.034   5.046
 2720SOL     OW 9505   1.934   3.890   4.042
 2720SOL    HW1 9506   1.917   3.973   3.988
 2720SOL    HW2 9507   2.024   3.853   4.020
 2721SOL     OW 9508   3.312   4.944   5.357
 2721SOL    HW1 9509   3.303   4.934   5.456
 2721SOL    HW2 9510   3.408   4.937   5.331
 2722SOL     OW 9511   3.536   4.607   4.978
 2722SOL    HW1 9512   3.509   4.518   4.941
 2722SOL    HW2 9513   3.537   4.675   4.905
 2723SOL     OW 9514   3.087   4.049   4.173
 2723SOL    HW1 9515   3.152   3.975   4.162
 2723SOL    HW2 9516   3.107   4.099   4.257
 2724SOL     OW 9517   3.592   4.658   5.241
 2724SOL    HW1 9518   3.630   4.749   5.256
 2724SOL    HW2 9519   3.584   4.641   5.142
 2725SOL     OW 9520   2.721   4.680   4.585
 2725SOL    HW1 9521   2.775   4.611   4.633
 2725SOL    HW2 9522   2.689   4.749   4.651
 2726SOL     OW 9523   2.945   4.708   3.811
 2726SOL    HW1 9524   2.922   4.761   3.729
 2726SOL    HW2 9525   3.026   4.652   3.792
 2727SOL     OW 9526   1.941   4.964   4.377
 2727SOL    HW1 9527   1.940   4.917   4.465
 2727SOL    HW2 9528   2.023   4.936   4.326
 2728SOL     OW 9529   3.686   3.916   4.951
 2728SOL    HW1 9530   3.682   3.826   4.995
 2728SOL    HW2 9531   3.689   3.905   4.852
 2729SOL     OW 9532   3.286   3.938   4.836
 2729SOL    HW1 9533   3.338   3.873   4.891
 2729SOL    HW2 9534   3.237   4.001   4.897
 2730SOL     OW 9535   2.863   3.758   4.878
 2730SOL    HW1 9536   2.800   3.686   4.847
 2730SOL    HW2 9537   2.956   3.722   4.878
 2731SOL     OW 9538   2.632   5.054   4.025
 2731SOL    HW1 9539   2.586   4.967   4.042
 2731SOL    HW2 9540   2.723   5.051   4.066
 2732SOL     OW 9541   3.214   3.776   3.892
 2732SOL    HW1 9542   3.249   3.735   3.808
 2732SOL    HW2 9543   3.124   3.738   3.912
 2733SOL     OW 9544   3.162   4.177   4.415
 2733SOL    HW1 9545   3.103   4.257   4.419
 2733SOL    HW2 9546   3.177   4.142   4.508
 2734SOL     OW 9547   3.455   3.945   4.606
 2734SOL    HW1 9548   3.371   3.944   4.660
 2734SOL    HW2 9549   3.457   4.028   4.550
 2735SOL     OW 9550   1.901   4.801   4.024
 2735SOL    HW1 9551   2.000   4.790   4.015
 2735SOL    HW2 9552   1.861   4.715   4.056
 2736SOL     OW 9553   3.949   0.275   0.996
 2736SOL    HW1 9554   3.984   0.258   1.088
 2736SOL    HW2 9555   3.861   0.230   0.984
 2737SOL     OW 9556   3.743   0.368   0.647
 2737SOL    HW1 9557   3.661   0.411   0.686
 2737SOL    HW2 9558   3.715   0.295   0.584
 2738SOL     OW 9559   4.859   0.703   0.717
 2738SOL    HW1 9560   4.916   0.781   0.692
 2738SOL    HW2 9561   4.799   0.729   0.793
 2739SOL     OW 9562   4.574   0.798   1.823
 2739SOL    HW1 9563   4.570   0.874   1.888
 2739SOL    HW2 9564   4.596   0.834   1.732
 2740SOL     OW 9565   4.409   1.012   0.665
 2740SOL    HW1 9566   4.478   0.996   0.735
 2740SOL    HW2 9567   4.336   1.069   0.703
 2741SOL     OW 9568   4.410   1.161   1.803
 2741SOL    HW1 9569   4.470   1.240   1.817
 2741SOL    HW2 9570   4.324   1.192   1.762
 2742SOL     OW 9571   3.955   1.713   0.483
 2742SOL    HW1 9572   3.989   1.790   0.537
 2742SOL    HW2 9573   3.999   1.713   0.393
 2743SOL     OW 9574   4.851   1.341   1.690
 2743SOL    HW1 9575   4.898   1.341   1.778
 2743SOL    HW2 9576   4.803   1.254   1.679
 2744SOL     OW 9577   3.954   1.434   0.538
 2744SOL    HW1 9578   3.928   1.530   0.538
 2744SOL    HW2 9579   3.883   1.380   0.583
 2745SOL     OW 9580   4.330   0.964   0.123
 2745SOL    HW1 9581   4.337   1.048   0.069
 2745SOL    HW2 9582   4.376   0.977   0.211
 2746SOL     OW 9583   3.846   0.643   0.563
 2746SOL    HW1 9584   3.801   0.555   0.580
 2746SOL    HW2 9585   3.845   0.697   0.647
 2747SOL     OW 9586   3.751   1.596   0.117
 2747SOL    HW1 9587   3.732   1.500   0.138
 2747SOL    HW2 9588   3.718   1.654   0.192
 2748SOL     OW 9589   3.837   0.737   1.597
 2748SOL    HW1 9590   3.925   0.724   1.642
 2748SOL    HW2 9591   3.824   0.834   1.575
 2749SOL     OW 9592   4.337   1.365   0.726
 2749SOL    HW1 9593   4.288   1.278   0.735
 2749SOL    HW2 9594   4.314   1.408   0.639
 2750SOL     OW 9595   5.017   1.228   1.423
 2750SOL    HW1 9596   5.054   1.155   1.365
 2750SOL    HW2 9597   5.069   1.233   1.508
 2751SOL     OW 9598   3.921   0.976   1.264
 2751SOL    HW1 9599   4.010   0.931   1.250
 2751SOL    HW2 9600   3.848   0.911   1.245
 2752SOL     OW 9601   4.911   1.792   1.616
 2752SOL    HW1 9602   4.935   1.852   1.540
 2752SOL    HW2 9603   4.918   1.697   1.586
 2753SOL     OW 9604   4.041   0.251   1.801
 2753SOL    HW1 9605   4.112   0.322   1.807
 2753SOL    HW2 9606   3.953   0.290   1.829
 2754SOL     OW 9607   4.322   0.729   0.270
 2754SOL    HW1 9608   4.346   0.798   0.202
 2754SOL    HW2 9609   4.244   0.762   0.324
 2755SOL     OW 9610   5.005   0.345   0.944
 2755SOL    HW1 9611   4.919   0.295   0.931
 2755SOL    HW2 9612   5.067   0.291   1.000
 2756SOL     OW 9613   4.531   0.605   1.465
 2756SOL    HW1 9614   4.484   0.602   1.554
 2756SOL    HW2 9615   4.480   0.550   1.399
 2757SOL     OW 9616   4.697   0.890   1.572
 2757SOL    HW1 9617   4.743   0.806   1.543
 2757SOL    HW2 9618   4.641   0.924   1.497
 2758SOL     OW 9619   4.715   0.410   1.242
 2758SOL    HW1 9620   4.638   0.444   1.296
 2758SOL    HW2 9621   4.681   0.359   1.163
 2759SOL     OW 9622   3.800   0.811   0.789
 2759SOL    HW1 9623   3.899   0.799   0.798
 2759SOL    HW2 9624   3.776   0.906   0.810
 2760SOL     OW 9625   3.854   1.821   1.571
 2760SOL    HW1 9626   3.844   1.806   1.670
 2760SOL    HW2 9627   3.768   1.857   1.535
 2761SOL     OW 9628   4.589   0.348   0.195
 2761SOL    HW1 9629   4.648   0.411   0.146
 2761SOL    HW2 9630   4.608   0.254   0.166
 2762SOL     OW 9631   4.274   0.196   0.885
 2762SOL    HW1 9632   4.269   0.191   0.985
 2762SOL    HW2 9633   4.276   0.292   0.856
 2763SOL     OW 9634   4.732   1.456   0.477
 2763SOL    HW1 9635   4.686   1.528   0.425
 2763SOL    HW2 9636   4.728   1.476   0.575
 2764SOL     OW 9637   4.075   1.801   0.853
 2764SOL    HW1 9638   4.125   1.715   0.859
 2764SOL    HW2 9639   4.140   1.878   0.850
 2765SOL     OW 9640   4.951   1.550   1.506
 2765SOL    HW1 9641   4.957   1.473   1.570
 2765SOL    HW2 9642   4.899   1.524   1.426
 2766SOL     OW 9643   4.045   0.943   0.242
 2766SOL    HW1 9644   4.127   0.982   0.200
 2766SOL    HW2 9645   4.018   0.861   0.193
 2767SOL     OW 9646   4.185   1.266   1.727
 2767SOL    HW1 9647   4.135   1.267   1.641
 2767SOL    HW2 9648   4.122   1.248   1.803
 2768SOL     OW 9649   3.926   0.285   1.498
 2768SOL    HW1 9650   3.846   0.345   1.485
 2768SOL    HW2 9651   3.916   0.236   1.584
 2769SOL     OW 9652   5.356   1.377   0.081
 2769SOL    HW1 9653   5.324   1.471   0.071
 2769SOL    HW2 9654   5.280   1.314   0.069
 2770SOL     OW 9655   4.188   1.743   0.323
 2770SOL    HW1 9656   4.221   1.782   0.409
 2770SOL    HW2 9657   4.264   1.736   0.258
 2771SOL     OW 9658   3.973   1.785   1.241
 2771SOL    HW1 9659   4.030   1.720   1.291
 2771SOL    HW2 9660   3.957   1.752   1.148
 2772SOL     OW 9661   4.664   1.698   0.904
 2772SOL    HW1 9662   4.744   1.641   0.925
 2772SOL    HW2 9663   4.615   1.658   0.827
 2773SOL     OW 9664   4.106   0.700   0.480
 2773SOL    HW1 9665   4.151   0.610   0.477
 2773SOL    HW2 9666   4.012   0.689   0.513
 2774SOL     OW 9667   4.338   0.122   0.117
 2774SOL    HW1 9668   4.436   0.100   0.124
 2774SOL    HW2 9669   4.307   0.105   0.024
 2775SOL     OW 9670   4.612   1.514   1.195
 2775SOL    HW1 9671   4.589   1.489   1.101
 2775SOL    HW2 9672   4.673   1.445   1.234
 2776SOL     OW 9673   4.527   1.402   0.924
 2776SOL    HW1 9674   4.617   1.416   0.882
 2776SOL    HW2 9675   4.456   1.404   0.853
 2777SOL     OW 9676   4.646   0.503   0.899
 2777SOL    HW1 9677   4.621   0.494   0.803
 2777SOL    HW2 9678   4.694   0.421   0.930
 2778SOL     OW 9679   4.263   0.064   0.512
 2778SOL    HW1 9680   4.182   0.065   0.570
 2778SOL    HW2 9681   4.266   0.147   0.457
 2779SOL     OW 9682   4.021   0.035   0.171
 2779SOL    HW1 9683   4.070   0.119   0.150
 2779SOL    HW2 9684   4.083  -0.030   0.216
 2780SOL     OW 9685   4.659   0.236   0.480
 2780SOL    HW1 9686   4.611   0.277   0.402
 2780SOL    HW2 9687   4.758   0.234   0.461
 2781SOL     OW 9688   4.800   0.683   1.464
 2781SOL    HW1 9689   4.720   0.622   1.467
 2781SOL    HW2 9690   4.881   0.630   1.440
 2782SOL     OW 9691   4.951   1.570   0.793
 2782SOL    HW1 9692   4.972   1.644   0.728
 2782SOL    HW2 9693   5.019   1.570   0.866
 2783SOL     OW 9694   4.995   1.797   0.591
 2783SOL    HW1 9695   5.039   1.861   0.527
 2783SOL    HW2 9696   4.945   1.849   0.661
 2784SOL     OW 9697   3.802   0.556   1.386
 2784SOL    HW1 9698   3.894   0.555   1.345
 2784SOL    HW2 9699   3.796   0.630   1.453
 2785SOL     OW 9700   4.590   0.454   0.642
 2785SOL    HW1 9701   4.558   0.526   0.580
 2785SOL    HW2 9702   4.614   0.373   0.589
 2786SOL     OW 9703   4.741   0.039   0.753
 2786SOL    HW1 9704   4.669   0.044   0.684
 2786SOL    HW2 9705   4.717  -0.030   0.822
 2787SOL     OW 9706   4.212   1.385   0.174
 2787SOL    HW1 9707   4.125   1.370   0.221
 2787SOL    HW2 9708   4.195   1.411   0.079
 2788SOL     OW 9709   5.388   1.280   0.657
 2788SOL    HW1 9710   5.487   1.288   0.671
 2788SOL    HW2 9711   5.343   1.364   0.688
 2789SOL     OW 9712   4.251   0.256   0.328
 2789SOL    HW1 9713   4.278   0.197   0.253
 2789SOL    HW2 9714   4.251   0.351   0.297
 2790SOL     OW 9715   4.788   1.347   1.340
 2790SOL    HW1 9716   4.708   1.324   1.395
 2790SOL    HW2 9717   4.871   1.321   1.389
 2791SOL     OW 9718   4.835   1.195   1.100
 2791SOL    HW1 9719   4.795   1.239   1.181
 2791SOL    HW2 9720   4.794   1.232   1.017
 2792SOL     OW 9721   4.639   0.089   1.402
 2792SOL    HW1 9722   4.664   0.069   1.307
 2792SOL    HW2 9723   4.711   0.145   1.444
 2793SOL     OW 9724   4.704   1.116   1.719
 2793SOL    HW1 9725   4.605   1.122   1.729
 2793SOL    HW2 9726   4.727   1.036   1.663
 2794SOL     OW 9727   4.429   1.050   0.368
 2794SOL    HW1 9728   4.415   1.057   0.467
 2794SOL    HW2 9729   4.513   0.999   0.350
 2795SOL     OW 9730   4.998   0.386   1.262
 2795SOL    HW1 9731   5.019   0.460   1.326
 2795SOL    HW2 9732   4.909   0.403   1.219
 2796SOL     OW 9733   3.788   1.564   1.331
 2796SOL    HW1 9734   3.742   1.646   1.297
 2796SOL    HW2 9735   3.886   1.583   1.340
 2797SOL     OW 9736   4.091   1.100   0.501
 2797SOL    HW1 9737   4.084   1.183   0.445
 2797SOL    HW2 9738   4.095   1.020   0.441
 2798SOL     OW 9739   4.290   0.537   0.865
 2798SOL    HW1 9740   4.302   0.603   0.791
 2798SOL    HW2 9741   4.336   0.571   0.948
 2799SOL     OW 9742   4.976   1.348   0.388
 2799SOL    HW1 9743   5.026   1.425   0.428
 2799SOL    HW2 9744   4.881   1.350   0.420
 2800SOL     OW 9745   4.078   1.510   1.329
 2800SOL    HW1 9746   4.057   1.466   1.242
 2800SOL    HW2 9747   4.175   1.536   1.332
 2801SOL     OW 9748   4.126   0.751   1.598
 2801SOL    HW1 9749   4.194   0.806   1.551
 2801SOL    HW2 9750   4.166   0.663   1.625
 2802SOL     OW 9751   4.737   0.105   1.770
 2802SOL    HW1 9752   4.743   0.190   1.718
 2802SOL    HW2 9753   4.769   0.029   1.713
 2803SOL     OW 9754   5.084   0.862   1.045
 2803SOL    HW1 9755   5.009   0.862   0.979
 2803SOL    HW2 9756   5.121   0.770   1.054
 2804SOL     OW 9757   4.031   0.213   1.231
 2804SOL    HW1 9758   4.008   0.250   1.321
 2804SOL    HW2 9759   4.001   0.118   1.225
 2805SOL     OW 9760   3.761   1.310   1.282
 2805SOL    HW1 9761   3.814   1.261   1.350
 2805SOL    HW2 9762   3.783   1.408   1.287
 2806SOL     OW 9763   4.456   0.634   1.064
 2806SOL    HW1 9764   4.515   0.608   0.988
 2806SOL    HW2 9765   4.428   0.730   1.053
 2807SOL     OW 9766   4.031   0.063   0.618
 2807SOL    HW1 9767   4.020   0.157   0.651
 2807SOL    HW2 9768   4.026   0.000   0.695
 2808SOL     OW 9769   5.346   0.367   0.374
 2808SOL    HW1 9770   5.348   0.291   0.438
 2808SOL    HW2 9771   5.298   0.444   0.414
 2809SOL     OW 9772   4.747   0.766   0.966
 2809SOL    HW1 9773   4.762   0.787   1.062
 2809SOL    HW2 9774   4.717   0.671   0.957
 2810SOL     OW 9775   4.704   1.573   1.700
 2810SOL    HW1 9776   4.684   1.617   1.612
 2810SOL    HW2 9777   4.743   1.482   1.684
 2811SOL     OW 9778   4.074   0.898   1.804
 2811SOL    HW1 9779   4.150   0.942   1.852
 2811SOL    HW2 9780   4.109   0.851   1.722
 2812SOL     OW 9781   5.027   0.838   0.042
 2812SOL    HW1 9782   5.061   0.745   0.057
 2812SOL    HW2 9783   5.045   0.865  -0.053
 2813SOL     OW 9784   4.792   1.333   0.849
 2813SOL    HW1 9785   4.799   1.249   0.794
 2813SOL    HW2 9786   4.854   1.402   0.813
 2814SOL     OW 9787   4.063   0.509   1.006
 2814SOL    HW1 9788   4.011   0.426   0.989
 2814SOL    HW2 9789   4.140   0.514   0.942
 2815SOL     OW 9790   4.862   0.380   1.678
 2815SOL    HW1 9791   4.817   0.443   1.742
 2815SOL    HW2 9792   4.955   0.411   1.661
 2816SOL     OW 9793   4.884   0.207   1.477
 2816SOL    HW1 9794   4.884   0.271   1.554
 2816SOL    HW2 9795   4.912   0.255   1.394
 2817SOL     OW 9796   3.812   1.801   0.927
 2817SOL    HW1 9797   3.770   1.715   0.900
 2817SOL    HW2 9798   3.906   1.804   0.893
 2818SOL     OW 9799   3.764   0.544   1.114
 2818SOL    HW1 9800   3.849   0.511   1.073
 2818SOL    HW2 9801   3.777   0.559   1.212
 2819SOL     OW 9802   3.913   0.520   1.722
 2819SOL    HW1 9803   3.972   0.480   1.652
 2819SOL    HW2 9804   3.855   0.591   1.681
 2820SOL     OW 9805   4.539   0.572   0.325
 2820SOL    HW1 9806   4.546   0.483   0.279
 2820SOL    HW2 9807   4.445   0.606   0.317
 2821SOL     OW 9808   3.976   1.564   1.744
 2821SOL    HW1 9809   3.946   1.621   1.820
 2821SOL    HW2 9810   3.969   1.467   1.770
 2822SOL     OW 9811   4.395   0.464   1.269
 2822SOL    HW1 9812   4.361   0.375   1.239
 2822SOL    HW2 9813   4.421   0.518   1.189
 2823SOL     OW 9814   4.654   1.678   1.465
 2823SOL    HW1 9815   4.630   1.660   1.370
 2823SOL    HW2 9816   4.684   1.772   1.475
 2824SOL     OW 9817   4.197   0.500   0.191
 2824SOL    HW1 9818   4.258   0.580   0.195
 2824SOL    HW2 9819   4.102   0.531   0.198
 2825SOL     OW 9820   3.883   1.137   1.466
 2825SOL    HW1 9821   3.905   1.076   1.542
 2825SOL    HW2 9822   3.893   1.088   1.380
 2826SOL     OW 9823   5.071   1.059   1.234
 2826SOL    HW1 9824   5.095   0.996   1.160
 2826SOL    HW2 9825   4.981   1.099   1.216
 2827SOL     OW 9826   4.976   1.731   1.128
 2827SOL    HW1 9827   5.060   1.736   1.074
 2827SOL    HW2 9828   4.953   1.635   1.146
 2828SOL     OW 9829   4.627   0.086   0.133
 2828SOL    HW1 9830   4.678   0.087   0.047
 2828SOL    HW2 9831   4.683   0.044   0.204
 2829SOL     OW 9832   5.112   1.573   0.477
 2829SOL    HW1 9833   5.179   1.585   0.403
 2829SOL    HW2 9834   5.072   1.662   0.500
 2830SOL     OW 9835   3.854   1.794   1.851
 2830SOL    HW1 9836   3.813   1.720   1.904
 2830SOL    HW2 9837   3.918   1.845   1.909
 2831SOL     OW 9838   4.554   1.273   1.422
 2831SOL    HW1 9839   4.549   1.306   1.517
 2831SOL    HW2 9840   4.468   1.292   1.376
 2832SOL     OW 9841   4.396   1.616   0.154
 2832SOL    HW1 9842   4.405   1.626   0.055
 2832SOL    HW2 9843   4.356   1.527   0.175
 2833SOL     OW 9844   3.987   0.326   0.720
 2833SOL    HW1 9845   3.908   0.377   0.686
 2833SOL    HW2 9846   3.978   0.311   0.818
 2834SOL     OW 9847   4.546   1.002   1.372
 2834SOL    HW1 9848   4.586   1.001   1.280
 2834SOL    HW2 9849   4.556   1.094   1.412
 2835SOL     OW 9850   4.640   0.910   0.291
 2835SOL    HW1 9851   4.703   0.948   0.223
 2835SOL    HW2 9852   4.680   0.827   0.330
 2836SOL     OW 9853   4.096   1.288   1.490
 2836SOL    HW1 9854   4.083   1.381   1.456
 2836SOL    HW2 9855   4.012   1.236   1.477
 2837SOL     OW 9856   4.738   0.236   0.971
 2837SOL    HW1 9857   4.730   0.200   0.878
 2837SOL    HW2 9858   4.736   0.160   1.036
 2838SOL     OW 9859   4.314   1.487   0.491
 2838SOL    HW1 9860   4.356   1.429   0.421
 2838SOL    HW2 9861   4.270   1.566   0.447
 2839SOL     OW 9862   3.979   1.348   0.290
 2839SOL    HW1 9863   3.883   1.349   0.263
 2839SOL    HW2 9864   3.991   1.401   0.374
 2840SOL     OW 9865   3.829   1.013   1.726
 2840SOL    HW1 9866   3.752   0.980   1.780
 2840SOL    HW2 9867   3.914   0.983   1.768
 2841SOL     OW 9868   5.164   0.856   1.398
 2841SOL    HW1 9869   5.107   0.908   1.335
 2841SOL    HW2 9870   5.260   0.868   1.374
 2842SOL     OW 9871   3.796   0.166   0.318
 2842SOL    HW1 9872   3.779   0.249   0.264
 2842SOL    HW2 9873   3.886   0.129   0.296
 2843SOL     OW 9874   4.949   0.325   0.449
 2843SOL    HW1 9875   5.014   0.251   0.438
 2843SOL    HW2 9876   4.969   0.375   0.533
 2844SOL     OW 9877   4.318   0.745   0.652
 2844SOL    HW1 9878   4.368   0.830   0.633
 2844SOL    HW2 9879   4.230   0.747   0.604
 2845SOL     OW 9880   4.385   1.790   0.953
 2845SOL    HW1 9881   4.339   1.878   0.940
 2845SOL    HW2 9882   4.484   1.802   0.946
 2846SOL     OW 9883   4.807   0.984   0.087
 2846SOL    HW1 9884   4.784   1.037   0.005
 2846SOL    HW2 9885   4.888   0.928   0.068
 2847SOL     OW 9886   3.945   1.314   1.844
 2847SOL    HW1 9887   3.880   1.241   1.823
 2847SOL    HW2 9888   3.949   1.328   1.942
 2848SOL     OW 9889   3.803   1.240   0.653
 2848SOL    HW1 9890   3.802   1.193   0.741
 2848SOL    HW2 9891   3.885   1.212   0.602
 2849SOL     OW 9892   4.152   0.424   0.520
 2849SOL    HW1 9893   4.182   0.352   0.458
 2849SOL    HW2 9894   4.113   0.384   0.603
 2850SOL     OW 9895   4.041   0.547   1.280
 2850SOL    HW1 9896   4.079   0.488   1.352
 2850SOL    HW2 9897   4.081   0.521   1.192
 2851SOL     OW 9898   4.536   1.586   0.687
 2851SOL    HW1 9899   4.568   1.596   0.593
 2851SOL    HW2 9900   4.457   1.524   0.689
 2852SOL     OW 9901   4.725   0.034   1.154
 2852SOL    HW1 9902   4.662  -0.038   1.123
 2852SOL    HW2 9903   4.818  -0.002   1.154
 2853SOL     OW 9904   4.494   1.330   0.301
 2853SOL    HW1 9905   4.448   1.243   0.318
 2853SOL    HW2 9906   4.585   1.327   0.342
 2854SOL     OW 9907   4.342   1.567   1.284
 2854SOL    HW1 9908   4.337   1.649   1.341
 2854SOL    HW2 9909   4.431   1.564   1.239
 2855SOL     OW 9910   4.599   1.646   0.337
 2855SOL    HW1 9911   4.522   1.611   0.283
 2855SOL    HW2 9912   4.567   1.717   0.399
 2856SOL     OW 9913   3.954   0.628   1.975
 2856SOL    HW1 9914   3.861   0.626   2.012
 2856SOL    HW2 9915   3.955   0.589   1.883
 2857SOL     OW 9916   3.949   0.275   2.858
 2857SOL    HW1 9917   3.984   0.258   2.950
 2857SOL    HW2 9918   3.861   0.230   2.846
 2858SOL     OW 9919   3.743   0.368   2.509
 2858SOL    HW1 9920   3.661   0.411   2.548
 2858SOL    HW2 9921   3.715   0.295   2.446
 2859SOL     OW 9922   4.293   1.275   3.027
 2859SOL    HW1 9923   4.200   1.268   2.990
 2859SOL    HW2 9924   4.304   1.364   3.071
 2860SOL     OW 9925   4.859   0.703   2.579
 2860SOL    HW1 9926   4.916   0.781   2.554
 2860SOL    HW2 9927   4.799   0.729   2.655
 2861SOL     OW 9928   4.492   1.144   2.885
 2861SOL    HW1 9929   4.414   1.161   2.945
 2861SOL    HW2 9930   4.526   1.231   2.849
 2862SOL     OW 9931   4.574   0.798   3.685
 2862SOL    HW1 9932   4.570   0.874   3.750
 2862SOL    HW2 9933   4.596   0.834   3.594
 2863SOL     OW 9934   4.409   1.012   2.527
 2863SOL    HW1 9935   4.478   0.996   2.597
 2863SOL    HW2 9936   4.336   1.069   2.565
 2864SOL     OW 9937   4.410   1.161   3.665
 2864SOL    HW1 9938   4.470   1.240   3.679
 2864SOL    HW2 9939   4.324   1.192   3.624
 2865SOL     OW 9940   4.059   1.435   2.923
 2865SOL    HW1 9941   3.981   1.404   2.870
 2865SOL    HW2 9942   4.117   1.493   2.866
 2866SOL     OW 9943   4.162   0.392   3.361
 2866SOL    HW1 9944   4.244   0.336   3.370
 2866SOL    HW2 9945   4.081   0.334   3.365
 2867SOL     OW 9946   3.955   1.713   2.345
 2867SOL    HW1 9947   3.989   1.790   2.399
 2867SOL    HW2 9948   3.999   1.713   2.255
 2868SOL     OW 9949   4.851   1.341   3.552
 2868SOL    HW1 9950   4.898   1.341   3.640
 2868SOL    HW2 9951   4.803   1.254   3.541
 2869SOL     OW 9952   3.954   1.434   2.400
 2869SOL    HW1 9953   3.928   1.530   2.400
 2869SOL    HW2 9954   3.883   1.380   2.445
 2870SOL     OW 9955   3.964   1.091   2.748
 2870SOL    HW1 9956   3.978   1.007   2.800
 2870SOL    HW2 9957   3.909   1.155   2.803
 2871SOL     OW 9958   4.344   1.786   3.301
 2871SOL    HW1 9959   4.252   1.769   3.336
 2871SOL    HW2 9960   4.372   1.878   3.327
 2872SOL     OW 9961   4.330   0.964   1.985
 2872SOL    HW1 9962   4.337   1.048   1.931
 2872SOL    HW2 9963   4.376   0.977   2.073
 2873SOL     OW 9964   3.846   0.643   2.425
 2873SOL    HW1 9965   3.801   0.555   2.442
 2873SOL    HW2 9966   3.845   0.697   2.509
 2874SOL     OW 9967   3.751   1.596   1.979
 2874SOL    HW1 9968   3.732   1.500   2.000
 2874SOL    HW2 9969   3.718   1.654   2.054
 2875SOL     OW 9970   3.837   0.737   3.459
 2875SOL    HW1 9971   3.925   0.724   3.504
 2875SOL    HW2 9972   3.824   0.834   3.437
 2876SOL     OW 9973   4.337   1.365   2.588
 2876SOL    HW1 9974   4.288   1.278   2.597
 2876SOL    HW2 9975   4.314   1.408   2.501
 2877SOL     OW 9976   5.017   1.228   3.285
 2877SOL    HW1 9977   5.054   1.155   3.227
 2877SOL    HW2 9978   5.069   1.233   3.370
 2878SOL     OW 9979   4.533   0.004   2.364
 2878SOL    HW1 9980   4.573   0.095   2.355
 2878SOL    HW2 9981   4.433   0.012   2.370
 2879SOL     OW 9982   3.921   0.976   3.126
 2879SOL    HW1 9983   4.010   0.931   3.112
 2879SOL    HW2 9984   3.848   0.911   3.107
 2880SOL     OW 9985   4.911   1.792   3.478
 2880SOL    HW1 9986   4.935   1.852   3.402
 2880SOL    HW2 9987   4.918   1.697   3.448
 2881SOL     OW 9988   4.041   0.251   3.663
 2881SOL    HW1 9989   4.112   0.322   3.669
 2881SOL    HW2 9990   3.953   0.290   3.691
 2882SOL     OW 9991   4.322   0.729   2.132
 2882SOL    HW1 9992   4.346   0.798   2.064
 2882SOL    HW2 9993   4.244   0.762   2.186
 2883SOL     OW 9994   5.005   0.345   2.806
 2883SOL    HW1 9995   4.919   0.295   2.793
 2883SOL    HW2 9996   5.067   0.291   2.862
 2884SOL     OW 9997   4.531   0.605   3.327
 2884SOL    HW1 9998   4.484   0.602   3.416
 2884SOL    HW2 9999   4.480   0.550   3.261
 2885SOL     OW10000   4.697   0.890   3.434
 2885SOL    HW110001   4.743   0.806   3.405
 2885SOL    HW210002   4.641   0.924   3.359
 2886SOL     OW10003   4.715   0.410   3.104
 2886SOL    HW110004   4.638   0.444   3.158
 2886SOL    HW210005   4.681   0.359   3.025
 2887SOL     OW10006   4.765   0.701   2.291
 2887SOL    HW110007   4.791   0.697   2.387
 2887SOL    HW210008   4.680   0.650   2.277
 2888SOL     OW10009   3.800   0.811   2.651
 2888SOL    HW110010   3.899   0.799   2.660
 2888SOL    HW210011   3.776   0.906   2.672
 2889SOL     OW10012   3.854   1.821   3.433
 2889SOL    HW110013   3.844   1.806   3.532
 2889SOL    HW210014   3.768   1.857   3.397
 2890SOL     OW10015   4.589   0.348   2.057
 2890SOL    HW110016   4.648   0.411   2.008
 2890SOL    HW210017   4.608   0.254   2.028
 2891SOL     OW10018   4.274   0.196   2.747
 2891SOL    HW110019   4.269   0.191   2.847
 2891SOL    HW210020   4.276   0.292   2.718
 2892SOL     OW10021   4.732   1.456   2.339
 2892SOL    HW110022   4.686   1.528   2.287
 2892SOL    HW210023   4.728   1.476   2.437
 2893SOL     OW10024   4.075   1.801   2.715
 2893SOL    HW110025   4.125   1.715   2.721
 2893SOL    HW210026   4.140   1.878   2.712
 2894SOL     OW10027   4.951   1.550   3.368
 2894SOL    HW110028   4.957   1.473   3.432
 2894SOL    HW210029   4.899   1.524   3.288
 2895SOL     OW10030   4.045   0.943   2.104
 2895SOL    HW110031   4.127   0.982   2.062
 2895SOL    HW210032   4.018   0.861   2.055
 2896SOL     OW10033   4.185   1.266   3.589
 2896SOL    HW110034   4.135   1.267   3.503
 2896SOL    HW210035   4.122   1.248   3.665
 2897SOL     OW10036   4.835   1.776   2.099
 2897SOL    HW110037   4.775   1.714   2.149
 2897SOL    HW210038   4.866   1.732   2.014
 2898SOL     OW10039   3.926   0.285   3.360
 2898SOL    HW110040   3.846   0.345   3.347
 2898SOL    HW210041   3.916   0.236   3.446
 2899SOL     OW10042   4.188   1.743   2.185
 2899SOL    HW110043   4.221   1.782   2.271
 2899SOL    HW210044   4.264   1.736   2.120
 2900SOL     OW10045   3.973   1.785   3.103
 2900SOL    HW110046   4.030   1.720   3.153
 2900SOL    HW210047   3.957   1.752   3.010
 2901SOL     OW10048   4.664   1.698   2.766
 2901SOL    HW110049   4.744   1.641   2.787
 2901SOL    HW210050   4.615   1.658   2.689
 2902SOL     OW10051   4.106   0.700   2.342
 2902SOL    HW110052   4.151   0.610   2.339
 2902SOL    HW210053   4.012   0.689   2.375
 2903SOL     OW10054   4.338   0.122   1.979
 2903SOL    HW110055   4.436   0.100   1.986
 2903SOL    HW210056   4.307   0.105   1.886
 2904SOL     OW10057   4.505   0.264   3.611
 2904SOL    HW110058   4.572   0.203   3.654
 2904SOL    HW210059   4.432   0.283   3.676
 2905SOL     OW10060   4.612   1.514   3.057
 2905SOL    HW110061   4.589   1.489   2.963
 2905SOL    HW210062   4.673   1.445   3.096
 2906SOL     OW10063   4.527   1.402   2.786
 2906SOL    HW110064   4.617   1.416   2.744
 2906SOL    HW210065   4.456   1.404   2.715
 2907SOL     OW10066   4.646   0.503   2.761
 2907SOL    HW110067   4.621   0.494   2.665
 2907SOL    HW210068   4.694   0.421   2.792
 2908SOL     OW10069   4.263   0.064   2.374
 2908SOL    HW110070   4.182   0.065   2.432
 2908SOL    HW210071   4.266   0.147   2.319
 2909SOL     OW10072   4.659   0.236   2.342
 2909SOL    HW110073   4.611   0.277   2.264
 2909SOL    HW210074   4.758   0.234   2.323
 2910SOL     OW10075   4.800   0.683   3.326
 2910SOL    HW110076   4.720   0.622   3.329
 2910SOL    HW210077   4.881   0.630   3.302
 2911SOL     OW10078   4.951   1.570   2.655
 2911SOL    HW110079   4.972   1.644   2.590
 2911SOL    HW210080   5.019   1.570   2.728
 2912SOL     OW10081   4.183   1.152   2.603
 2912SOL    HW110082   4.112   1.125   2.668
 2912SOL    HW210083   4.157   1.124   2.510
 2913SOL     OW10084   4.995   1.797   2.453
 2913SOL    HW110085   5.039   1.861   2.389
 2913SOL    HW210086   4.945   1.849   2.523
 2914SOL     OW10087   4.756   0.549   1.878
 2914SOL    HW110088   4.715   0.631   1.839
 2914SOL    HW210089   4.820   0.575   1.951
 2915SOL     OW10090   3.802   0.556   3.248
 2915SOL    HW110091   3.894   0.555   3.207
 2915SOL    HW210092   3.796   0.630   3.315
 2916SOL     OW10093   4.285   0.222   3.009
 2916SOL    HW110094   4.323   0.138   3.046
 2916SOL    HW210095   4.197   0.241   3.053
 2917SOL     OW10096   4.590   0.454   2.504
 2917SOL    HW110097   4.558   0.526   2.442
 2917SOL    HW210098   4.614   0.373   2.451
 2918SOL     OW10099   4.212   1.385   2.036
 2918SOL    HW110100   4.125   1.370   2.083
 2918SOL    HW210101   4.195   1.411   1.941
 2919SOL     OW10102   5.388   1.280   2.519
 2919SOL    HW110103   5.487   1.288   2.533
 2919SOL    HW210104   5.343   1.364   2.550
 2920SOL     OW10105   4.251   0.256   2.190
 2920SOL    HW110106   4.278   0.197   2.115
 2920SOL    HW210107   4.251   0.351   2.159
 2921SOL     OW10108   4.788   1.347   3.202
 2921SOL    HW110109   4.708   1.324   3.257
 2921SOL    HW210110   4.871   1.321   3.251
 2922SOL     OW10111   4.835   1.195   2.962
 2922SOL    HW110112   4.795   1.239   3.043
 2922SOL    HW210113   4.794   1.232   2.879
 2923SOL     OW10114   4.639   0.089   3.264
 2923SOL    HW110115   4.664   0.069   3.169
 2923SOL    HW210116   4.711   0.145   3.306
 2924SOL     OW10117   4.704   1.116   3.581
 2924SOL    HW110118   4.605   1.122   3.591
 2924SOL    HW210119   4.727   1.036   3.525
 2925SOL     OW10120   4.429   1.050   2.230
 2925SOL    HW110121   4.415   1.057   2.329
 2925SOL    HW210122   4.513   0.999   2.212
 2926SOL     OW10123   4.134   0.813   3.113
 2926SOL    HW110124   4.220   0.825   3.163
 2926SOL    HW210125   4.092   0.726   3.140
 2927SOL     OW10126   4.998   0.386   3.124
 2927SOL    HW110127   5.019   0.460   3.188
 2927SOL    HW210128   4.909   0.403   3.081
 2928SOL     OW10129   3.788   1.564   3.193
 2928SOL    HW110130   3.742   1.646   3.159
 2928SOL    HW210131   3.886   1.583   3.202
 2929SOL     OW10132   4.091   1.100   2.363
 2929SOL    HW110133   4.084   1.183   2.307
 2929SOL    HW210134   4.095   1.020   2.303
 2930SOL     OW10135   4.290   0.537   2.727
 2930SOL    HW110136   4.302   0.603   2.653
 2930SOL    HW210137   4.336   0.571   2.810
 2931SOL     OW10138   4.976   1.348   2.250
 2931SOL    HW110139   5.026   1.425   2.290
 2931SOL    HW210140   4.881   1.350   2.282
 2932SOL     OW10141   4.078   1.510   3.191
 2932SOL    HW110142   4.057   1.466   3.104
 2932SOL    HW210143   4.175   1.536   3.194
 2933SOL     OW10144   4.126   0.751   3.460
 2933SOL    HW110145   4.194   0.806   3.413
 2933SOL    HW210146   4.166   0.663   3.487
 2934SOL     OW10147   4.737   0.105   3.632
 2934SOL    HW110148   4.743   0.190   3.580
 2934SOL    HW210149   4.769   0.029   3.575
 2935SOL     OW10150   4.228   0.050   3.602
 2935SOL    HW110151   4.186  -0.007   3.532
 2935SOL    HW210152   4.162   0.119   3.634
 2936SOL     OW10153   4.297   0.870   2.891
 2936SOL    HW110154   4.341   0.959   2.882
 2936SOL    HW210155   4.234   0.870   2.968
 2937SOL     OW10156   5.084   0.862   2.907
 2937SOL    HW110157   5.009   0.862   2.841
 2937SOL    HW210158   5.121   0.770   2.916
 2938SOL     OW10159   4.933   0.525   2.137
 2938SOL    HW110160   4.946   0.441   2.191
 2938SOL    HW210161   4.904   0.599   2.197
 2939SOL     OW10162   4.031   0.213   3.093
 2939SOL    HW110163   4.008   0.250   3.183
 2939SOL    HW210164   4.001   0.118   3.087
 2940SOL     OW10165   3.761   1.310   3.144
 2940SOL    HW110166   3.814   1.261   3.212
 2940SOL    HW210167   3.783   1.408   3.149
 2941SOL     OW10168   4.456   0.634   2.926
 2941SOL    HW110169   4.515   0.608   2.850
 2941SOL    HW210170   4.428   0.730   2.915
 2942SOL     OW10171   4.031   0.063   2.480
 2942SOL    HW110172   4.020   0.157   2.513
 2942SOL    HW210173   4.026   0.000   2.557
 2943SOL     OW10174   5.346   0.367   2.236
 2943SOL    HW110175   5.348   0.291   2.300
 2943SOL    HW210176   5.298   0.444   2.276
 2944SOL     OW10177   4.747   0.766   2.828
 2944SOL    HW110178   4.762   0.787   2.924
 2944SOL    HW210179   4.717   0.671   2.819
 2945SOL     OW10180   4.704   1.573   3.562
 2945SOL    HW110181   4.684   1.617   3.474
 2945SOL    HW210182   4.743   1.482   3.546
 2946SOL     OW10183   4.074   0.898   3.666
 2946SOL    HW110184   4.150   0.942   3.714
 2946SOL    HW210185   4.109   0.851   3.584
 2947SOL     OW10186   5.027   0.838   1.904
 2947SOL    HW110187   5.061   0.745   1.919
 2947SOL    HW210188   5.045   0.865   1.809
 2948SOL     OW10189   4.792   1.333   2.711
 2948SOL    HW110190   4.799   1.249   2.656
 2948SOL    HW210191   4.854   1.402   2.675
 2949SOL     OW10192   4.043   0.810   2.811
 2949SOL    HW110193   4.136   0.846   2.816
 2949SOL    HW210194   4.037   0.725   2.863
 2950SOL     OW10195   4.063   0.509   2.868
 2950SOL    HW110196   4.011   0.426   2.851
 2950SOL    HW210197   4.140   0.514   2.804
 2951SOL     OW10198   4.862   0.380   3.540
 2951SOL    HW110199   4.817   0.443   3.604
 2951SOL    HW210200   4.955   0.411   3.523
 2952SOL     OW10201   4.884   0.207   3.339
 2952SOL    HW110202   4.884   0.271   3.416
 2952SOL    HW210203   4.912   0.255   3.256
 2953SOL     OW10204   3.732   1.326   2.062
 2953SOL    HW110205   3.639   1.347   2.031
 2953SOL    HW210206   3.742   1.227   2.075
 2954SOL     OW10207   3.812   1.801   2.789
 2954SOL    HW110208   3.770   1.715   2.762
 2954SOL    HW210209   3.906   1.804   2.755
 2955SOL     OW10210   4.228   1.568   2.772
 2955SOL    HW110211   4.294   1.642   2.781
 2955SOL    HW210212   4.272   1.489   2.730
 2956SOL     OW10213   4.726   0.796   3.100
 2956SOL    HW110214   4.767   0.764   3.186
 2956SOL    HW210215   4.630   0.769   3.097
 2957SOL     OW10216   3.764   0.544   2.976
 2957SOL    HW110217   3.849   0.511   2.935
 2957SOL    HW210218   3.777   0.559   3.074
 2958SOL     OW10219   3.913   0.520   3.584
 2958SOL    HW110220   3.972   0.480   3.514
 2958SOL    HW210221   3.855   0.591   3.543
 2959SOL     OW10222   4.539   0.572   2.187
 2959SOL    HW110223   4.546   0.483   2.141
 2959SOL    HW210224   4.445   0.606   2.179
 2960SOL     OW10225   3.976   1.564   3.606
 2960SOL    HW110226   3.946   1.621   3.682
 2960SOL    HW210227   3.969   1.467   3.632
 2961SOL     OW10228   4.395   0.464   3.131
 2961SOL    HW110229   4.361   0.375   3.101
 2961SOL    HW210230   4.421   0.518   3.051
 2962SOL     OW10231   4.654   1.678   3.327
 2962SOL    HW110232   4.630   1.660   3.232
 2962SOL    HW210233   4.684   1.772   3.337
 2963SOL     OW10234   4.197   0.500   2.053
 2963SOL    HW110235   4.258   0.580   2.057
 2963SOL    HW210236   4.102   0.531   2.060
 2964SOL     OW10237   3.883   1.137   3.328
 2964SOL    HW110238   3.905   1.076   3.404
 2964SOL    HW210239   3.893   1.088   3.242
 2965SOL     OW10240   5.071   1.059   3.096
 2965SOL    HW110241   5.095   0.996   3.022
 2965SOL    HW210242   4.981   1.099   3.078
 2966SOL     OW10243   4.976   1.731   2.990
 2966SOL    HW110244   5.060   1.736   2.936
 2966SOL    HW210245   4.953   1.635   3.008
 2967SOL     OW10246   3.807   1.258   2.884
 2967SOL    HW110247   3.802   1.257   2.984
 2967SOL    HW210248   3.724   1.217   2.846
 2968SOL     OW10249   4.412   1.662   3.578
 2968SOL    HW110250   4.356   1.743   3.587
 2968SOL    HW210251   4.464   1.666   3.492
 2969SOL     OW10252   5.112   1.573   2.339
 2969SOL    HW110253   5.179   1.585   2.265
 2969SOL    HW210254   5.072   1.662   2.362
 2970SOL     OW10255   3.854   1.794   3.713
 2970SOL    HW110256   3.813   1.720   3.766
 2970SOL    HW210257   3.918   1.845   3.771
 2971SOL     OW10258   5.004   0.927   2.534
 2971SOL    HW110259   5.064   0.846   2.536
 2971SOL    HW210260   5.044   0.996   2.474
 2972SOL     OW10261   4.554   1.273   3.284
 2972SOL    HW110262   4.549   1.306   3.379
 2972SOL    HW210263   4.468   1.292   3.238
 2973SOL     OW10264   4.396   1.616   2.016
 2973SOL    HW110265   4.405   1.626   1.917
 2973SOL    HW210266   4.356   1.527   2.037
 2974SOL     OW10267   3.987   0.326   2.582
 2974SOL    HW110268   3.908   0.377   2.548
 2974SOL    HW210269   3.978   0.311   2.680
 2975SOL     OW10270   4.918   1.612   1.893
 2975SOL    HW110271   4.924   1.519   1.930
 2975SOL    HW210272   4.859   1.612   1.813
 2976SOL     OW10273   4.546   1.002   3.234
 2976SOL    HW110274   4.586   1.001   3.142
 2976SOL    HW210275   4.556   1.094   3.274
 2977SOL     OW10276   4.640   0.910   2.153
 2977SOL    HW110277   4.703   0.948   2.085
 2977SOL    HW210278   4.680   0.827   2.192
 2978SOL     OW10279   4.096   1.288   3.352
 2978SOL    HW110280   4.083   1.381   3.318
 2978SOL    HW210281   4.012   1.236   3.339
 2979SOL     OW10282   4.763   1.098   2.558
 2979SOL    HW110283   4.693   1.051   2.612
 2979SOL    HW210284   4.822   1.030   2.515
 2980SOL     OW10285   4.314   1.487   2.353
 2980SOL    HW110286   4.356   1.429   2.283
 2980SOL    HW210287   4.270   1.566   2.309
 2981SOL     OW10288   3.979   1.348   2.152
 2981SOL    HW110289   3.883   1.349   2.125
 2981SOL    HW210290   3.991   1.401   2.236
 2982SOL     OW10291   4.396   0.203   3.351
 2982SOL    HW110292   4.486   0.187   3.311
 2982SOL    HW210293   4.404   0.208   3.450
 2983SOL     OW10294   3.799   0.345   1.895
 2983SOL    HW110295   3.707   0.317   1.866
 2983SOL    HW210296   3.830   0.422   1.839
 2984SOL     OW10297   5.164   0.856   3.260
 2984SOL    HW110298   5.107   0.908   3.197
 2984SOL    HW210299   5.260   0.868   3.236
 2985SOL     OW10300   3.796   0.166   2.180
 2985SOL    HW110301   3.779   0.249   2.126
 2985SOL    HW210302   3.886   0.129   2.158
 2986SOL     OW10303   4.337   0.842   3.293
 2986SOL    HW110304   4.393   0.923   3.276
 2986SOL    HW210305   4.396   0.762   3.296
 2987SOL     OW10306   4.440   0.565   3.570
 2987SOL    HW110307   4.459   0.630   3.644
 2987SOL    HW210308   4.500   0.485   3.579
 2988SOL     OW10309   4.114   1.741   3.422
 2988SOL    HW110310   4.023   1.782   3.420
 2988SOL    HW210311   4.107   1.647   3.454
 2989SOL     OW10312   4.949   0.325   2.311
 2989SOL    HW110313   5.014   0.251   2.300
 2989SOL    HW210314   4.969   0.375   2.395
 2990SOL     OW10315   4.318   0.745   2.514
 2990SOL    HW110316   4.368   0.830   2.495
 2990SOL    HW210317   4.230   0.747   2.466
 2991SOL     OW10318   4.583   1.374   1.878
 2991SOL    HW110319   4.537   1.389   1.966
 2991SOL    HW210320   4.627   1.459   1.848
 2992SOL     OW10321   4.385   1.790   2.815
 2992SOL    HW110322   4.339   1.878   2.802
 2992SOL    HW210323   4.484   1.802   2.808
 2993SOL     OW10324   4.583   0.956   2.723
 2993SOL    HW110325   4.637   0.887   2.771
 2993SOL    HW210326   4.551   1.025   2.789
 2994SOL     OW10327   4.807   0.984   1.949
 2994SOL    HW110328   4.784   1.037   1.867
 2994SOL    HW210329   4.888   0.928   1.930
 2995SOL     OW10330   3.803   1.240   2.515
 2995SOL    HW110331   3.802   1.193   2.603
 2995SOL    HW210332   3.885   1.212   2.464
 2996SOL     OW10333   4.396   1.391   3.486
 2996SOL    HW110334   4.318   1.341   3.524
 2996SOL    HW210335   4.393   1.486   3.517
 2997SOL     OW10336   4.152   0.424   2.382
 2997SOL    HW110337   4.182   0.352   2.320
 2997SOL    HW210338   4.113   0.384   2.465
 2998SOL     OW10339   4.041   0.547   3.142
 2998SOL    HW110340   4.079   0.488   3.214
 2998SOL    HW210341   4.081   0.521   3.054
 2999SOL     OW10342   4.536   1.586   2.549
 2999SOL    HW110343   4.568   1.596   2.455
 2999SOL    HW210344   4.457   1.524   2.551
 3000SOL     OW10345   4.725   0.034   3.016
 3000SOL    HW110346   4.662  -0.038   2.985
 3000SOL    HW210347   4.818  -0.002   3.016
 3001SOL     OW10348   4.494   1.330   2.163
 3001SOL    HW110349   4.448   1.243   2.180
 3001SOL    HW210350   4.585   1.327   2.204
 3002SOL     OW10351   4.342   1.567   3.146
 3002SOL    HW110352   4.337   1.649   3.203
 3002SOL    HW210353   4.431   1.564   3.101
 3003SOL     OW10354   3.763   1.077   2.162
 3003SOL    HW110355   3.862   1.066   2.153
 3003SOL    HW210356   3.723   0.991   2.194
 3004SOL     OW10357   4.599   1.646   2.199
 3004SOL    HW110358   4.522   1.611   2.145
 3004SOL    HW210359   4.567   1.717   2.261
 3005SOL     OW10360   3.954   0.628   3.837
 3005SOL    HW110361   3.861   0.626   3.874
 3005SOL    HW210362   3.955   0.589   3.745
 3006SOL     OW10363   3.949   0.275   4.720
 3006SOL    HW110364   3.984   0.258   4.812
 3006SOL    HW210365   3.861   0.230   4.708
 3007SOL     OW10366   3.743   0.368   4.371
 3007SOL    HW110367   3.661   0.411   4.410
 3007SOL    HW210368   3.715   0.295   4.308
 3008SOL     OW10369   4.293   1.275   4.889
 3008SOL    HW110370   4.200   1.268   4.852
 3008SOL    HW210371   4.304   1.364   4.933
 3009SOL     OW10372   4.492   1.144   4.747
 3009SOL    HW110373   4.414   1.161   4.807
 3009SOL    HW210374   4.526   1.231   4.711
 3010SOL     OW10375   4.409   1.012   4.389
 3010SOL    HW110376   4.478   0.996   4.459
 3010SOL    HW210377   4.336   1.069   4.427
 3011SOL     OW10378   4.059   1.435   4.785
 3011SOL    HW110379   3.981   1.404   4.732
 3011SOL    HW210380   4.117   1.493   4.728
 3012SOL     OW10381   3.964   1.091   4.610
 3012SOL    HW110382   3.978   1.007   4.662
 3012SOL    HW210383   3.909   1.155   4.665
 3013SOL     OW10384   4.344   1.786   5.163
 3013SOL    HW110385   4.252   1.769   5.198
 3013SOL    HW210386   4.372   1.878   5.189
 3014SOL     OW10387   4.330   0.964   3.847
 3014SOL    HW110388   4.337   1.048   3.793
 3014SOL    HW210389   4.376   0.977   3.935
 3015SOL     OW10390   3.846   0.643   4.287
 3015SOL    HW110391   3.801   0.555   4.304
 3015SOL    HW210392   3.845   0.697   4.371
 3016SOL     OW10393   3.751   1.596   3.841
 3016SOL    HW110394   3.732   1.500   3.862
 3016SOL    HW210395   3.718   1.654   3.916
 3017SOL     OW10396   4.337   1.365   4.450
 3017SOL    HW110397   4.288   1.278   4.459
 3017SOL    HW210398   4.314   1.408   4.363
 3018SOL     OW10399   4.533   0.004   4.226
 3018SOL    HW110400   4.573   0.095   4.217
 3018SOL    HW210401   4.433   0.012   4.232
 3019SOL     OW10402   4.322   0.729   3.994
 3019SOL    HW110403   4.346   0.798   3.926
 3019SOL    HW210404   4.244   0.762   4.048
 3020SOL     OW10405   5.005   0.345   4.668
 3020SOL    HW110406   4.919   0.295   4.655
 3020SOL    HW210407   5.067   0.291   4.724
 3021SOL     OW10408   4.715   0.410   4.966
 3021SOL    HW110409   4.638   0.444   5.020
 3021SOL    HW210410   4.681   0.359   4.887
 3022SOL     OW10411   3.800   0.811   4.513
 3022SOL    HW110412   3.899   0.799   4.522
 3022SOL    HW210413   3.776   0.906   4.534
 3023SOL     OW10414   4.589   0.348   3.919
 3023SOL    HW110415   4.648   0.411   3.870
 3023SOL    HW210416   4.608   0.254   3.890
 3024SOL     OW10417   4.274   0.196   4.609
 3024SOL    HW110418   4.269   0.191   4.709
 3024SOL    HW210419   4.276   0.292   4.580
 3025SOL     OW10420   4.732   1.456   4.201
 3025SOL    HW110421   4.686   1.528   4.149
 3025SOL    HW210422   4.728   1.476   4.299
 3026SOL     OW10423   4.045   0.943   3.966
 3026SOL    HW110424   4.127   0.982   3.924
 3026SOL    HW210425   4.018   0.861   3.917
 3027SOL     OW10426   4.835   1.776   3.961
 3027SOL    HW110427   4.775   1.714   4.011
 3027SOL    HW210428   4.866   1.732   3.876
 3028SOL     OW10429   4.188   1.743   4.047
 3028SOL    HW110430   4.221   1.782   4.133
 3028SOL    HW210431   4.264   1.736   3.982
 3029SOL     OW10432   3.973   1.785   4.965
 3029SOL    HW110433   4.030   1.720   5.015
 3029SOL    HW210434   3.957   1.752   4.872
 3030SOL     OW10435   4.664   1.698   4.628
 3030SOL    HW110436   4.744   1.641   4.649
 3030SOL    HW210437   4.615   1.658   4.551
 3031SOL     OW10438   4.106   0.700   4.204
 3031SOL    HW110439   4.151   0.610   4.201
 3031SOL    HW210440   4.012   0.689   4.237
 3032SOL     OW10441   4.338   0.122   3.841
 3032SOL    HW110442   4.436   0.100   3.848
 3032SOL    HW210443   4.307   0.105   3.748
 3033SOL     OW10444   4.646   0.503   4.623
 3033SOL    HW110445   4.621   0.494   4.527
 3033SOL    HW210446   4.694   0.421   4.654
 3034SOL     OW10447   4.263   0.064   4.236
 3034SOL    HW110448   4.182   0.065   4.294
 3034SOL    HW210449   4.266   0.147   4.181
 3035SOL     OW10450   4.021   0.035   3.895
 3035SOL    HW110451   4.070   0.119   3.874
 3035SOL    HW210452   4.083  -0.030   3.940
 3036SOL     OW10453   4.659   0.236   4.204
 3036SOL    HW110454   4.611   0.277   4.126
 3036SOL    HW210455   4.758   0.234   4.185
 3037SOL     OW10456   4.951   1.570   4.517
 3037SOL    HW110457   4.972   1.644   4.452
 3037SOL    HW210458   5.019   1.570   4.590
 3038SOL     OW10459   4.183   1.152   4.465
 3038SOL    HW110460   4.112   1.125   4.530
 3038SOL    HW210461   4.157   1.124   4.372
 3039SOL     OW10462   4.995   1.797   4.315
 3039SOL    HW110463   5.039   1.861   4.251
 3039SOL    HW210464   4.945   1.849   4.385
 3040SOL     OW10465   4.285   0.222   4.871
 3040SOL    HW110466   4.323   0.138   4.908
 3040SOL    HW210467   4.197   0.241   4.915
 3041SOL     OW10468   4.590   0.454   4.366
 3041SOL    HW110469   4.558   0.526   4.304
 3041SOL    HW210470   4.614   0.373   4.313
 3042SOL     OW10471   4.741   0.039   4.477
 3042SOL    HW110472   4.669   0.044   4.408
 3042SOL    HW210473   4.717  -0.030   4.546
 3043SOL     OW10474   4.212   1.385   3.898
 3043SOL    HW110475   4.125   1.370   3.945
 3043SOL    HW210476   4.195   1.411   3.803
 3044SOL     OW10477   5.388   1.280   4.381
 3044SOL    HW110478   5.487   1.288   4.395
 3044SOL    HW210479   5.343   1.364   4.412
 3045SOL     OW10480   4.251   0.256   4.052
 3045SOL    HW110481   4.278   0.197   3.977
 3045SOL    HW210482   4.251   0.351   4.021
 3046SOL     OW10483   5.316   1.629   5.349
 3046SOL    HW110484   5.343   1.663   5.259
 3046SOL    HW210485   5.395   1.591   5.395
 3047SOL     OW10486   4.429   1.050   4.092
 3047SOL    HW110487   4.415   1.057   4.191
 3047SOL    HW210488   4.513   0.999   4.074
 3048SOL     OW10489   4.134   0.813   4.975
 3048SOL    HW110490   4.220   0.825   5.025
 3048SOL    HW210491   4.092   0.726   5.002
 3049SOL     OW10492   4.290   0.537   4.589
 3049SOL    HW110493   4.302   0.603   4.515
 3049SOL    HW210494   4.336   0.571   4.672
 3050SOL     OW10495   4.976   1.348   4.112
 3050SOL    HW110496   5.026   1.425   4.152
 3050SOL    HW210497   4.881   1.350   4.144
 3051SOL     OW10498   4.078   1.510   5.053
 3051SOL    HW110499   4.057   1.466   4.966
 3051SOL    HW210500   4.175   1.536   5.056
 3052SOL     OW10501   4.297   0.870   4.753
 3052SOL    HW110502   4.341   0.959   4.744
 3052SOL    HW210503   4.234   0.870   4.830
 3053SOL     OW10504   5.084   0.862   4.769
 3053SOL    HW110505   5.009   0.862   4.703
 3053SOL    HW210506   5.121   0.770   4.778
 3054SOL     OW10507   4.031   0.213   4.955
 3054SOL    HW110508   4.008   0.250   5.045
 3054SOL    HW210509   4.001   0.118   4.949
 3055SOL     OW10510   3.761   1.310   5.006
 3055SOL    HW110511   3.814   1.261   5.074
 3055SOL    HW210512   3.783   1.408   5.011
 3056SOL     OW10513   4.456   0.634   4.788
 3056SOL    HW110514   4.515   0.608   4.712
 3056SOL    HW210515   4.428   0.730   4.777
 3057SOL     OW10516   4.031   0.063   4.342
 3057SOL    HW110517   4.020   0.157   4.375
 3057SOL    HW210518   4.026   0.000   4.419
 3058SOL     OW10519   5.346   0.367   4.098
 3058SOL    HW110520   5.348   0.291   4.162
 3058SOL    HW210521   5.298   0.444   4.138
 3059SOL     OW10522   4.747   0.766   4.690
 3059SOL    HW110523   4.762   0.787   4.786
 3059SOL    HW210524   4.717   0.671   4.681
 3060SOL     OW10525   5.027   0.838   3.766
 3060SOL    HW110526   5.061   0.745   3.781
 3060SOL    HW210527   5.045   0.865   3.671
 3061SOL     OW10528   4.043   0.810   4.673
 3061SOL    HW110529   4.136   0.846   4.678
 3061SOL    HW210530   4.037   0.725   4.725
 3062SOL     OW10531   4.063   0.509   4.730
 3062SOL    HW110532   4.011   0.426   4.713
 3062SOL    HW210533   4.140   0.514   4.666
 3063SOL     OW10534   4.884   0.207   5.201
 3063SOL    HW110535   4.884   0.271   5.278
 3063SOL    HW210536   4.912   0.255   5.118
 3064SOL     OW10537   3.812   1.801   4.651
 3064SOL    HW110538   3.770   1.715   4.624
 3064SOL    HW210539   3.906   1.804   4.617
 3065SOL     OW10540   4.726   0.796   4.962
 3065SOL    HW110541   4.767   0.764   5.048
 3065SOL    HW210542   4.630   0.769   4.959
 3066SOL     OW10543   3.764   0.544   4.838
 3066SOL    HW110544   3.849   0.511   4.797
 3066SOL    HW210545   3.777   0.559   4.936
 3067SOL     OW10546   4.395   0.464   4.993
 3067SOL    HW110547   4.361   0.375   4.963
 3067SOL    HW210548   4.421   0.518   4.913
 3068SOL     OW10549   4.197   0.500   3.915
 3068SOL    HW110550   4.258   0.580   3.919
 3068SOL    HW210551   4.102   0.531   3.922
 3069SOL     OW10552   5.071   1.059   4.958
 3069SOL    HW110553   5.095   0.996   4.884
 3069SOL    HW210554   4.981   1.099   4.940
 3070SOL     OW10555   4.976   1.731   4.852
 3070SOL    HW110556   5.060   1.736   4.798
 3070SOL    HW210557   4.953   1.635   4.870
 3071SOL     OW10558   5.112   1.573   4.201
 3071SOL    HW110559   5.179   1.585   4.127
 3071SOL    HW210560   5.072   1.662   4.224
 3072SOL     OW10561   4.396   1.616   3.878
 3072SOL    HW110562   4.405   1.626   3.779
 3072SOL    HW210563   4.356   1.527   3.899
 3073SOL     OW10564   3.987   0.326   4.444
 3073SOL    HW110565   3.908   0.377   4.410
 3073SOL    HW210566   3.978   0.311   4.542
 3074SOL     OW10567   4.918   1.612   3.755
 3074SOL    HW110568   4.924   1.519   3.792
 3074SOL    HW210569   4.859   1.612   3.675
 3075SOL     OW10570   4.546   1.002   5.096
 3075SOL    HW110571   4.586   1.001   5.004
 3075SOL    HW210572   4.556   1.094   5.136
 3076SOL     OW10573   4.640   0.910   4.015
 3076SOL    HW110574   4.703   0.948   3.947
 3076SOL    HW210575   4.680   0.827   4.054
 3077SOL     OW10576   4.763   1.098   4.420
 3077SOL    HW110577   4.693   1.051   4.474
 3077SOL    HW210578   4.822   1.030   4.377
 3078SOL     OW10579   4.738   0.236   4.695
 3078SOL    HW110580   4.730   0.200   4.602
 3078SOL    HW210581   4.736   0.160   4.760
 3079SOL     OW10582   4.314   1.487   4.215
 3079SOL    HW110583   4.356   1.429   4.145
 3079SOL    HW210584   4.270   1.566   4.171
 3080SOL     OW10585   3.799   0.345   3.757
 3080SOL    HW110586   3.707   0.317   3.728
 3080SOL    HW210587   3.830   0.422   3.701
 3081SOL     OW10588   3.796   0.166   4.042
 3081SOL    HW110589   3.779   0.249   3.988
 3081SOL    HW210590   3.886   0.129   4.020
 3082SOL     OW10591   4.949   0.325   4.173
 3082SOL    HW110592   5.014   0.251   4.162
 3082SOL    HW210593   4.969   0.375   4.257
 3083SOL     OW10594   4.583   1.374   3.740
 3083SOL    HW110595   4.537   1.389   3.828
 3083SOL    HW210596   4.627   1.459   3.710
 3084SOL     OW10597   4.385   1.790   4.677
 3084SOL    HW110598   4.339   1.878   4.664
 3084SOL    HW210599   4.484   1.802   4.670
 3085SOL     OW10600   4.583   0.956   4.585
 3085SOL    HW110601   4.637   0.887   4.633
 3085SOL    HW210602   4.551   1.025   4.651
 3086SOL     OW10603   4.807   0.984   3.811
 3086SOL    HW110604   4.784   1.037   3.729
 3086SOL    HW210605   4.888   0.928   3.792
 3087SOL     OW10606   4.152   0.424   4.244
 3087SOL    HW110607   4.182   0.352   4.182
 3087SOL    HW210608   4.113   0.384   4.327
 3088SOL     OW10609   4.536   1.586   4.411
 3088SOL    HW110610   4.568   1.596   4.317
 3088SOL    HW210611   4.457   1.524   4.413
 3089SOL     OW10612   4.725   0.034   4.878
 3089SOL    HW110613   4.662  -0.038   4.847
 3089SOL    HW210614   4.818  -0.002   4.878
 3090SOL     OW10615   4.494   1.330   4.025
 3090SOL    HW110616   4.448   1.243   4.042
 3090SOL    HW210617   4.585   1.327   4.066
 3091SOL     OW10618   4.599   1.646   4.061
 3091SOL    HW110619   4.522   1.611   4.007
 3091SOL    HW210620   4.567   1.717   4.123
 3092SOL     OW10621   3.954   2.490   0.113
 3092SOL    HW110622   3.861   2.488   0.150
 3092SOL    HW210623   3.955   2.451   0.021
 3093SOL     OW10624   3.743   2.230   0.647
 3093SOL    HW110625   3.661   2.273   0.686
 3093SOL    HW210626   3.715   2.157   0.584
 3094SOL     OW10627   4.859   2.565   0.717
 3094SOL    HW110628   4.916   2.643   0.692
 3094SOL    HW210629   4.799   2.591   0.793
 3095SOL     OW10630   4.492   3.006   1.023
 3095SOL    HW110631   4.414   3.023   1.083
 3095SOL    HW210632   4.526   3.093   0.987
 3096SOL     OW10633   4.409   2.874   0.665
 3096SOL    HW110634   4.478   2.858   0.735
 3096SOL    HW210635   4.336   2.931   0.703
 3097SOL     OW10636   4.851   3.203   1.690
 3097SOL    HW110637   4.898   3.203   1.778
 3097SOL    HW210638   4.803   3.116   1.679
 3098SOL     OW10639   3.964   2.953   0.886
 3098SOL    HW110640   3.978   2.869   0.938
 3098SOL    HW210641   3.909   3.017   0.941
 3099SOL     OW10642   4.330   2.826   0.123
 3099SOL    HW110643   4.337   2.910   0.069
 3099SOL    HW210644   4.376   2.839   0.211
 3100SOL     OW10645   3.846   2.505   0.563
 3100SOL    HW110646   3.801   2.417   0.580
 3100SOL    HW210647   3.845   2.559   0.647
 3101SOL     OW10648   3.837   2.599   1.597
 3101SOL    HW110649   3.925   2.586   1.642
 3101SOL    HW210650   3.824   2.696   1.575
 3102SOL     OW10651   4.337   3.227   0.726
 3102SOL    HW110652   4.288   3.140   0.735
 3102SOL    HW210653   4.314   3.270   0.639
 3103SOL     OW10654   4.533   1.866   0.502
 3103SOL    HW110655   4.573   1.957   0.493
 3103SOL    HW210656   4.433   1.874   0.508
 3104SOL     OW10657   3.921   2.838   1.264
 3104SOL    HW110658   4.010   2.793   1.250
 3104SOL    HW210659   3.848   2.773   1.245
 3105SOL     OW10660   4.911   3.654   1.616
 3105SOL    HW110661   4.935   3.714   1.540
 3105SOL    HW210662   4.918   3.559   1.586
 3106SOL     OW10663   4.322   2.591   0.270
 3106SOL    HW110664   4.346   2.660   0.202
 3106SOL    HW210665   4.244   2.624   0.324
 3107SOL     OW10666   5.005   2.207   0.944
 3107SOL    HW110667   4.919   2.157   0.931
 3107SOL    HW210668   5.067   2.153   1.000
 3108SOL     OW10669   4.531   2.467   1.465
 3108SOL    HW110670   4.484   2.464   1.554
 3108SOL    HW210671   4.480   2.412   1.399
 3109SOL     OW10672   4.697   2.752   1.572
 3109SOL    HW110673   4.743   2.668   1.543
 3109SOL    HW210674   4.641   2.786   1.497
 3110SOL     OW10675   4.715   2.272   1.242
 3110SOL    HW110676   4.638   2.306   1.296
 3110SOL    HW210677   4.681   2.221   1.163
 3111SOL     OW10678   4.765   2.563   0.429
 3111SOL    HW110679   4.791   2.559   0.525
 3111SOL    HW210680   4.680   2.512   0.415
 3112SOL     OW10681   3.800   2.673   0.789
 3112SOL    HW110682   3.899   2.661   0.798
 3112SOL    HW210683   3.776   2.768   0.810
 3113SOL     OW10684   4.589   2.210   0.195
 3113SOL    HW110685   4.648   2.273   0.146
 3113SOL    HW210686   4.608   2.116   0.166
 3114SOL     OW10687   4.274   2.058   0.885
 3114SOL    HW110688   4.269   2.053   0.985
 3114SOL    HW210689   4.276   2.154   0.856
 3115SOL     OW10690   4.732   3.318   0.477
 3115SOL    HW110691   4.686   3.390   0.425
 3115SOL    HW210692   4.728   3.338   0.575
 3116SOL     OW10693   4.075   3.663   0.853
 3116SOL    HW110694   4.125   3.577   0.859
 3116SOL    HW210695   4.140   3.740   0.850
 3117SOL     OW10696   4.951   3.412   1.506
 3117SOL    HW110697   4.957   3.335   1.570
 3117SOL    HW210698   4.899   3.386   1.426
 3118SOL     OW10699   4.045   2.805   0.242
 3118SOL    HW110700   4.127   2.844   0.200
 3118SOL    HW210701   4.018   2.723   0.193
 3119SOL     OW10702   4.835   3.638   0.237
 3119SOL    HW110703   4.775   3.576   0.287
 3119SOL    HW210704   4.866   3.594   0.152
 3120SOL     OW10705   3.926   2.147   1.498
 3120SOL    HW110706   3.846   2.207   1.485
 3120SOL    HW210707   3.916   2.098   1.584
 3121SOL     OW10708   5.356   3.239   0.081
 3121SOL    HW110709   5.324   3.333   0.071
 3121SOL    HW210710   5.280   3.176   0.069
 3122SOL     OW10711   4.188   3.605   0.323
 3122SOL    HW110712   4.221   3.644   0.409
 3122SOL    HW210713   4.264   3.598   0.258
 3123SOL     OW10714   4.664   3.560   0.904
 3123SOL    HW110715   4.744   3.503   0.925
 3123SOL    HW210716   4.615   3.520   0.827
 3124SOL     OW10717   4.106   2.562   0.480
 3124SOL    HW110718   4.151   2.472   0.477
 3124SOL    HW210719   4.012   2.551   0.513
 3125SOL     OW10720   4.612   3.376   1.195
 3125SOL    HW110721   4.589   3.351   1.101
 3125SOL    HW210722   4.673   3.307   1.234
 3126SOL     OW10723   4.527   3.264   0.924
 3126SOL    HW110724   4.617   3.278   0.882
 3126SOL    HW210725   4.456   3.266   0.853
 3127SOL     OW10726   4.646   2.365   0.899
 3127SOL    HW110727   4.621   2.356   0.803
 3127SOL    HW210728   4.694   2.283   0.930
 3128SOL     OW10729   4.263   1.926   0.512
 3128SOL    HW110730   4.182   1.927   0.570
 3128SOL    HW210731   4.266   2.009   0.457
 3129SOL     OW10732   4.021   1.897   0.171
 3129SOL    HW110733   4.070   1.981   0.150
 3129SOL    HW210734   4.083   1.832   0.216
 3130SOL     OW10735   4.659   2.098   0.480
 3130SOL    HW110736   4.611   2.139   0.402
 3130SOL    HW210737   4.758   2.096   0.461
 3131SOL     OW10738   4.800   2.545   1.464
 3131SOL    HW110739   4.720   2.484   1.467
 3131SOL    HW210740   4.881   2.492   1.440
 3132SOL     OW10741   4.951   3.432   0.793
 3132SOL    HW110742   4.972   3.506   0.728
 3132SOL    HW210743   5.019   3.432   0.866
 3133SOL     OW10744   4.183   3.014   0.741
 3133SOL    HW110745   4.112   2.987   0.806
 3133SOL    HW210746   4.157   2.986   0.648
 3134SOL     OW10747   4.995   3.659   0.591
 3134SOL    HW110748   5.039   3.723   0.527
 3134SOL    HW210749   4.945   3.711   0.661
 3135SOL     OW10750   4.756   2.411   0.016
 3135SOL    HW110751   4.715   2.493  -0.023
 3135SOL    HW210752   4.820   2.437   0.089
 3136SOL     OW10753   3.802   2.418   1.386
 3136SOL    HW110754   3.894   2.417   1.345
 3136SOL    HW210755   3.796   2.492   1.453
 3137SOL     OW10756   4.590   2.316   0.642
 3137SOL    HW110757   4.558   2.388   0.580
 3137SOL    HW210758   4.614   2.235   0.589
 3138SOL     OW10759   4.741   1.901   0.753
 3138SOL    HW110760   4.669   1.906   0.684
 3138SOL    HW210761   4.717   1.832   0.822
 3139SOL     OW10762   4.212   3.247   0.174
 3139SOL    HW110763   4.125   3.232   0.221
 3139SOL    HW210764   4.195   3.273   0.079
 3140SOL     OW10765   5.388   3.142   0.657
 3140SOL    HW110766   5.487   3.150   0.671
 3140SOL    HW210767   5.343   3.226   0.688
 3141SOL     OW10768   4.251   2.118   0.328
 3141SOL    HW110769   4.278   2.059   0.253
 3141SOL    HW210770   4.251   2.213   0.297
 3142SOL     OW10771   4.788   3.209   1.340
 3142SOL    HW110772   4.708   3.186   1.395
 3142SOL    HW210773   4.871   3.183   1.389
 3143SOL     OW10774   4.835   3.057   1.100
 3143SOL    HW110775   4.795   3.101   1.181
 3143SOL    HW210776   4.794   3.094   1.017
 3144SOL     OW10777   4.639   1.951   1.402
 3144SOL    HW110778   4.664   1.931   1.307
 3144SOL    HW210779   4.711   2.007   1.444
 3145SOL     OW10780   4.429   2.912   0.368
 3145SOL    HW110781   4.415   2.919   0.467
 3145SOL    HW210782   4.513   2.861   0.350
 3146SOL     OW10783   4.134   2.675   1.251
 3146SOL    HW110784   4.220   2.687   1.301
 3146SOL    HW210785   4.092   2.588   1.278
 3147SOL     OW10786   4.290   2.399   0.865
 3147SOL    HW110787   4.302   2.465   0.791
 3147SOL    HW210788   4.336   2.433   0.948
 3148SOL     OW10789   4.976   3.210   0.388
 3148SOL    HW110790   5.026   3.287   0.428
 3148SOL    HW210791   4.881   3.212   0.420
 3149SOL     OW10792   4.126   2.613   1.598
 3149SOL    HW110793   4.194   2.668   1.551
 3149SOL    HW210794   4.166   2.525   1.625
 3150SOL     OW10795   4.737   1.967   1.770
 3150SOL    HW110796   4.743   2.052   1.718
 3150SOL    HW210797   4.769   1.891   1.713
 3151SOL     OW10798   4.297   2.732   1.029
 3151SOL    HW110799   4.341   2.821   1.020
 3151SOL    HW210800   4.234   2.732   1.106
 3152SOL     OW10801   5.084   2.724   1.045
 3152SOL    HW110802   5.009   2.724   0.979
 3152SOL    HW210803   5.121   2.632   1.054
 3153SOL     OW10804   4.933   2.387   0.275
 3153SOL    HW110805   4.946   2.303   0.329
 3153SOL    HW210806   4.904   2.461   0.335
 3154SOL     OW10807   3.761   3.172   1.282
 3154SOL    HW110808   3.814   3.123   1.350
 3154SOL    HW210809   3.783   3.270   1.287
 3155SOL     OW10810   4.456   2.496   1.064
 3155SOL    HW110811   4.515   2.470   0.988
 3155SOL    HW210812   4.428   2.592   1.053
 3156SOL     OW10813   4.031   1.925   0.618
 3156SOL    HW110814   4.020   2.019   0.651
 3156SOL    HW210815   4.026   1.862   0.695
 3157SOL     OW10816   4.747   2.628   0.966
 3157SOL    HW110817   4.762   2.649   1.062
 3157SOL    HW210818   4.717   2.533   0.957
 3158SOL     OW10819   4.704   3.435   1.700
 3158SOL    HW110820   4.684   3.479   1.612
 3158SOL    HW210821   4.743   3.344   1.684
 3159SOL     OW10822   4.074   2.760   1.804
 3159SOL    HW110823   4.150   2.804   1.852
 3159SOL    HW210824   4.109   2.713   1.722
 3160SOL     OW10825   5.027   2.700   0.042
 3160SOL    HW110826   5.061   2.607   0.057
 3160SOL    HW210827   5.045   2.727  -0.053
 3161SOL     OW10828   4.792   3.195   0.849
 3161SOL    HW110829   4.799   3.111   0.794
 3161SOL    HW210830   4.854   3.264   0.813
 3162SOL     OW10831   4.043   2.672   0.949
 3162SOL    HW110832   4.136   2.708   0.954
 3162SOL    HW210833   4.037   2.587   1.001
 3163SOL     OW10834   4.063   2.371   1.006
 3163SOL    HW110835   4.011   2.288   0.989
 3163SOL    HW210836   4.140   2.376   0.942
 3164SOL     OW10837   4.862   2.242   1.678
 3164SOL    HW110838   4.817   2.305   1.742
 3164SOL    HW210839   4.955   2.273   1.661
 3165SOL     OW10840   4.726   2.658   1.238
 3165SOL    HW110841   4.767   2.626   1.324
 3165SOL    HW210842   4.630   2.631   1.235
 3166SOL     OW10843   3.764   2.406   1.114
 3166SOL    HW110844   3.849   2.373   1.073
 3166SOL    HW210845   3.777   2.421   1.212
 3167SOL     OW10846   3.913   2.382   1.722
 3167SOL    HW110847   3.972   2.342   1.652
 3167SOL    HW210848   3.855   2.453   1.681
 3168SOL     OW10849   4.539   2.434   0.325
 3168SOL    HW110850   4.546   2.345   0.279
 3168SOL    HW210851   4.445   2.468   0.317
 3169SOL     OW10852   4.395   2.326   1.269
 3169SOL    HW110853   4.361   2.237   1.239
 3169SOL    HW210854   4.421   2.380   1.189
 3170SOL     OW10855   4.654   3.540   1.465
 3170SOL    HW110856   4.630   3.522   1.370
 3170SOL    HW210857   4.684   3.634   1.475
 3171SOL     OW10858   4.197   2.362   0.191
 3171SOL    HW110859   4.258   2.442   0.195
 3171SOL    HW210860   4.102   2.393   0.198
 3172SOL     OW10861   4.976   3.593   1.128
 3172SOL    HW110862   5.060   3.598   1.074
 3172SOL    HW210863   4.953   3.497   1.146
 3173SOL     OW10864   3.807   3.120   1.022
 3173SOL    HW110865   3.802   3.119   1.122
 3173SOL    HW210866   3.724   3.079   0.984
 3174SOL     OW10867   4.412   3.524   1.716
 3174SOL    HW110868   4.356   3.605   1.725
 3174SOL    HW210869   4.464   3.528   1.630
 3175SOL     OW10870   5.112   3.435   0.477
 3175SOL    HW110871   5.179   3.447   0.403
 3175SOL    HW210872   5.072   3.524   0.500
 3176SOL     OW10873   5.004   2.789   0.672
 3176SOL    HW110874   5.064   2.708   0.674
 3176SOL    HW210875   5.044   2.858   0.612
 3177SOL     OW10876   4.554   3.135   1.422
 3177SOL    HW110877   4.549   3.168   1.517
 3177SOL    HW210878   4.468   3.154   1.376
 3178SOL     OW10879   4.396   3.478   0.154
 3178SOL    HW110880   4.405   3.488   0.055
 3178SOL    HW210881   4.356   3.389   0.175
 3179SOL     OW10882   3.987   2.188   0.720
 3179SOL    HW110883   3.908   2.239   0.686
 3179SOL    HW210884   3.978   2.173   0.818
 3180SOL     OW10885   4.918   3.474   0.031
 3180SOL    HW110886   4.924   3.381   0.068
 3180SOL    HW210887   4.859   3.474  -0.049
 3181SOL     OW10888   4.546   2.864   1.372
 3181SOL    HW110889   4.586   2.863   1.280
 3181SOL    HW210890   4.556   2.956   1.412
 3182SOL     OW10891   4.640   2.772   0.291
 3182SOL    HW110892   4.703   2.810   0.223
 3182SOL    HW210893   4.680   2.689   0.330
 3183SOL     OW10894   4.763   2.960   0.696
 3183SOL    HW110895   4.693   2.913   0.750
 3183SOL    HW210896   4.822   2.892   0.653
 3184SOL     OW10897   4.738   2.098   0.971
 3184SOL    HW110898   4.730   2.062   0.878
 3184SOL    HW210899   4.736   2.022   1.036
 3185SOL     OW10900   4.314   3.349   0.491
 3185SOL    HW110901   4.356   3.291   0.421
 3185SOL    HW210902   4.270   3.428   0.447
 3186SOL     OW10903   3.829   2.875   1.726
 3186SOL    HW110904   3.752   2.842   1.780
 3186SOL    HW210905   3.914   2.845   1.768
 3187SOL     OW10906   3.796   2.028   0.318
 3187SOL    HW110907   3.779   2.111   0.264
 3187SOL    HW210908   3.886   1.991   0.296
 3188SOL     OW10909   4.337   2.704   1.431
 3188SOL    HW110910   4.393   2.785   1.414
 3188SOL    HW210911   4.396   2.624   1.434
 3189SOL     OW10912   4.114   3.603   1.560
 3189SOL    HW110913   4.023   3.644   1.558
 3189SOL    HW210914   4.107   3.509   1.592
 3190SOL     OW10915   4.949   2.187   0.449
 3190SOL    HW110916   5.014   2.113   0.438
 3190SOL    HW210917   4.969   2.237   0.533
 3191SOL     OW10918   4.318   2.607   0.652
 3191SOL    HW110919   4.368   2.692   0.633
 3191SOL    HW210920   4.230   2.609   0.604
 3192SOL     OW10921   4.583   3.236   0.016
 3192SOL    HW110922   4.537   3.251   0.104
 3192SOL    HW210923   4.627   3.321  -0.014
 3193SOL     OW10924   4.385   3.652   0.953
 3193SOL    HW110925   4.339   3.740   0.940
 3193SOL    HW210926   4.484   3.664   0.946
 3194SOL     OW10927   4.583   2.818   0.861
 3194SOL    HW110928   4.637   2.749   0.909
 3194SOL    HW210929   4.551   2.887   0.927
 3195SOL     OW10930   4.807   2.846   0.087
 3195SOL    HW110931   4.784   2.899   0.005
 3195SOL    HW210932   4.888   2.790   0.068
 3196SOL     OW10933   3.945   3.176   1.844
 3196SOL    HW110934   3.880   3.103   1.823
 3196SOL    HW210935   3.949   3.190   1.942
 3197SOL     OW10936   4.396   3.253   1.624
 3197SOL    HW110937   4.318   3.203   1.662
 3197SOL    HW210938   4.393   3.348   1.655
 3198SOL     OW10939   4.152   2.286   0.520
 3198SOL    HW110940   4.182   2.214   0.458
 3198SOL    HW210941   4.113   2.246   0.603
 3199SOL     OW10942   4.041   2.409   1.280
 3199SOL    HW110943   4.079   2.350   1.352
 3199SOL    HW210944   4.081   2.383   1.192
 3200SOL     OW10945   4.536   3.448   0.687
 3200SOL    HW110946   4.568   3.458   0.593
 3200SOL    HW210947   4.457   3.386   0.689
 3201SOL     OW10948   4.725   1.896   1.154
 3201SOL    HW110949   4.662   1.824   1.123
 3201SOL    HW210950   4.818   1.860   1.154
 3202SOL     OW10951   4.494   3.192   0.301
 3202SOL    HW110952   4.448   3.105   0.318
 3202SOL    HW210953   4.585   3.189   0.342
 3203SOL     OW10954   4.599   3.508   0.337
 3203SOL    HW110955   4.522   3.473   0.283
 3203SOL    HW210956   4.567   3.579   0.399
 3204SOL     OW10957   3.954   2.490   1.975
 3204SOL    HW110958   3.861   2.488   2.012
 3204SOL    HW210959   3.955   2.451   1.883
 3205SOL     OW10960   3.949   2.137   2.858
 3205SOL    HW110961   3.984   2.120   2.950
 3205SOL    HW210962   3.861   2.092   2.846
 3206SOL     OW10963   3.743   2.230   2.509
 3206SOL    HW110964   3.661   2.273   2.548
 3206SOL    HW210965   3.715   2.157   2.446
 3207SOL     OW10966   4.293   3.137   3.027
 3207SOL    HW110967   4.200   3.130   2.990
 3207SOL    HW210968   4.304   3.226   3.071
 3208SOL     OW10969   4.859   2.565   2.579
 3208SOL    HW110970   4.916   2.643   2.554
 3208SOL    HW210971   4.799   2.591   2.655
 3209SOL     OW10972   4.492   3.006   2.885
 3209SOL    HW110973   4.414   3.023   2.945
 3209SOL    HW210974   4.526   3.093   2.849
 3210SOL     OW10975   4.574   2.660   3.685
 3210SOL    HW110976   4.570   2.736   3.750
 3210SOL    HW210977   4.596   2.696   3.594
 3211SOL     OW10978   4.409   2.874   2.527
 3211SOL    HW110979   4.478   2.858   2.597
 3211SOL    HW210980   4.336   2.931   2.565
 3212SOL     OW10981   4.410   3.023   3.665
 3212SOL    HW110982   4.470   3.102   3.679
 3212SOL    HW210983   4.324   3.054   3.624
 3213SOL     OW10984   4.059   3.297   2.923
 3213SOL    HW110985   3.981   3.266   2.870
 3213SOL    HW210986   4.117   3.355   2.866
 3214SOL     OW10987   3.955   3.575   2.345
 3214SOL    HW110988   3.989   3.652   2.399
 3214SOL    HW210989   3.999   3.575   2.255
 3215SOL     OW10990   4.851   3.203   3.552
 3215SOL    HW110991   4.898   3.203   3.640
 3215SOL    HW210992   4.803   3.116   3.541
 3216SOL     OW10993   3.954   3.296   2.400
 3216SOL    HW110994   3.928   3.392   2.400
 3216SOL    HW210995   3.883   3.242   2.445
 3217SOL     OW10996   3.964   2.953   2.748
 3217SOL    HW110997   3.978   2.869   2.800
 3217SOL    HW210998   3.909   3.017   2.803
 3218SOL     OW10999   4.344   3.648   3.301
 3218SOL    HW111000   4.252   3.631   3.336
 3218SOL    HW211001   4.372   3.740   3.327
 3219SOL     OW11002   3.846   2.505   2.425
 3219SOL    HW111003   3.801   2.417   2.442
 3219SOL    HW211004   3.845   2.559   2.509
 3220SOL     OW11005   3.751   3.458   1.979
 3220SOL    HW111006   3.732   3.362   2.000
 3220SOL    HW211007   3.718   3.516   2.054
 3221SOL     OW11008   4.337   3.227   2.588
 3221SOL    HW111009   4.288   3.140   2.597
 3221SOL    HW211010   4.314   3.270   2.501
 3222SOL     OW11011   5.017   3.090   3.285
 3222SOL    HW111012   5.054   3.017   3.227
 3222SOL    HW211013   5.069   3.095   3.370
 3223SOL     OW11014   4.533   1.866   2.364
 3223SOL    HW111015   4.573   1.957   2.355
 3223SOL    HW211016   4.433   1.874   2.370
 3224SOL     OW11017   4.911   3.654   3.478
 3224SOL    HW111018   4.935   3.714   3.402
 3224SOL    HW211019   4.918   3.559   3.448
 3225SOL     OW11020   5.005   2.207   2.806
 3225SOL    HW111021   4.919   2.157   2.793
 3225SOL    HW211022   5.067   2.153   2.862
 3226SOL     OW11023   4.697   2.752   3.434
 3226SOL    HW111024   4.743   2.668   3.405
 3226SOL    HW211025   4.641   2.786   3.359
 3227SOL     OW11026   4.715   2.272   3.104
 3227SOL    HW111027   4.638   2.306   3.158
 3227SOL    HW211028   4.681   2.221   3.025
 3228SOL     OW11029   4.765   2.563   2.291
 3228SOL    HW111030   4.791   2.559   2.387
 3228SOL    HW211031   4.680   2.512   2.277
 3229SOL     OW11032   3.800   2.673   2.651
 3229SOL    HW111033   3.899   2.661   2.660
 3229SOL    HW211034   3.776   2.768   2.672
 3230SOL     OW11035   3.854   3.683   3.433
 3230SOL    HW111036   3.844   3.668   3.532
 3230SOL    HW211037   3.768   3.719   3.397
 3231SOL     OW11038   4.274   2.058   2.747
 3231SOL    HW111039   4.269   2.053   2.847
 3231SOL    HW211040   4.276   2.154   2.718
 3232SOL     OW11041   4.732   3.318   2.339
 3232SOL    HW111042   4.686   3.390   2.287
 3232SOL    HW211043   4.728   3.338   2.437
 3233SOL     OW11044   4.075   3.663   2.715
 3233SOL    HW111045   4.125   3.577   2.721
 3233SOL    HW211046   4.140   3.740   2.712
 3234SOL     OW11047   4.951   3.412   3.368
 3234SOL    HW111048   4.957   3.335   3.432
 3234SOL    HW211049   4.899   3.386   3.288
 3235SOL     OW11050   4.045   2.805   2.104
 3235SOL    HW111051   4.127   2.844   2.062
 3235SOL    HW211052   4.018   2.723   2.055
 3236SOL     OW11053   4.185   3.128   3.589
 3236SOL    HW111054   4.135   3.129   3.503
 3236SOL    HW211055   4.122   3.110   3.665
 3237SOL     OW11056   4.835   3.638   2.099
 3237SOL    HW111057   4.775   3.576   2.149
 3237SOL    HW211058   4.866   3.594   2.014
 3238SOL     OW11059   4.188   3.605   2.185
 3238SOL    HW111060   4.221   3.644   2.271
 3238SOL    HW211061   4.264   3.598   2.120
 3239SOL     OW11062   3.973   3.647   3.103
 3239SOL    HW111063   4.030   3.582   3.153
 3239SOL    HW211064   3.957   3.614   3.010
 3240SOL     OW11065   4.664   3.560   2.766
 3240SOL    HW111066   4.744   3.503   2.787
 3240SOL    HW211067   4.615   3.520   2.689
 3241SOL     OW11068   4.106   2.562   2.342
 3241SOL    HW111069   4.151   2.472   2.339
 3241SOL    HW211070   4.012   2.551   2.375
 3242SOL     OW11071   4.505   2.126   3.611
 3242SOL    HW111072   4.572   2.065   3.654
 3242SOL    HW211073   4.432   2.145   3.676
 3243SOL     OW11074   4.612   3.376   3.057
 3243SOL    HW111075   4.589   3.351   2.963
 3243SOL    HW211076   4.673   3.307   3.096
 3244SOL     OW11077   4.527   3.264   2.786
 3244SOL    HW111078   4.617   3.278   2.744
 3244SOL    HW211079   4.456   3.266   2.715
 3245SOL     OW11080   4.646   2.365   2.761
 3245SOL    HW111081   4.621   2.356   2.665
 3245SOL    HW211082   4.694   2.283   2.792
 3246SOL     OW11083   4.263   1.926   2.374
 3246SOL    HW111084   4.182   1.927   2.432
 3246SOL    HW211085   4.266   2.009   2.319
 3247SOL     OW11086   4.021   1.897   2.033
 3247SOL    HW111087   4.070   1.981   2.012
 3247SOL    HW211088   4.083   1.832   2.078
 3248SOL     OW11089   4.659   2.098   2.342
 3248SOL    HW111090   4.611   2.139   2.264
 3248SOL    HW211091   4.758   2.096   2.323
 3249SOL     OW11092   4.800   2.545   3.326
 3249SOL    HW111093   4.720   2.484   3.329
 3249SOL    HW211094   4.881   2.492   3.302
 3250SOL     OW11095   4.951   3.432   2.655
 3250SOL    HW111096   4.972   3.506   2.590
 3250SOL    HW211097   5.019   3.432   2.728
 3251SOL     OW11098   4.183   3.014   2.603
 3251SOL    HW111099   4.112   2.987   2.668
 3251SOL    HW211100   4.157   2.986   2.510
 3252SOL     OW11101   4.995   3.659   2.453
 3252SOL    HW111102   5.039   3.723   2.389
 3252SOL    HW211103   4.945   3.711   2.523
 3253SOL     OW11104   4.285   2.084   3.009
 3253SOL    HW111105   4.323   2.000   3.046
 3253SOL    HW211106   4.197   2.103   3.053
 3254SOL     OW11107   4.590   2.316   2.504
 3254SOL    HW111108   4.558   2.388   2.442
 3254SOL    HW211109   4.614   2.235   2.451
 3255SOL     OW11110   4.741   1.901   2.615
 3255SOL    HW111111   4.669   1.906   2.546
 3255SOL    HW211112   4.717   1.832   2.684
 3256SOL     OW11113   4.212   3.247   2.036
 3256SOL    HW111114   4.125   3.232   2.083
 3256SOL    HW211115   4.195   3.273   1.941
 3257SOL     OW11116   5.388   3.142   2.519
 3257SOL    HW111117   5.487   3.150   2.533
 3257SOL    HW211118   5.343   3.226   2.550
 3258SOL     OW11119   4.251   2.118   2.190
 3258SOL    HW111120   4.278   2.059   2.115
 3258SOL    HW211121   4.251   2.213   2.159
 3259SOL     OW11122   4.788   3.209   3.202
 3259SOL    HW111123   4.708   3.186   3.257
 3259SOL    HW211124   4.871   3.183   3.251
 3260SOL     OW11125   4.835   3.057   2.962
 3260SOL    HW111126   4.795   3.101   3.043
 3260SOL    HW211127   4.794   3.094   2.879
 3261SOL     OW11128   4.639   1.951   3.264
 3261SOL    HW111129   4.664   1.931   3.169
 3261SOL    HW211130   4.711   2.007   3.306
 3262SOL     OW11131   4.704   2.978   3.581
 3262SOL    HW111132   4.605   2.984   3.591
 3262SOL    HW211133   4.727   2.898   3.525
 3263SOL     OW11134   4.998   2.248   3.124
 3263SOL    HW111135   5.019   2.322   3.188
 3263SOL    HW211136   4.909   2.265   3.081
 3264SOL     OW11137   3.788   3.426   3.193
 3264SOL    HW111138   3.742   3.508   3.159
 3264SOL    HW211139   3.886   3.445   3.202
 3265SOL     OW11140   4.091   2.962   2.363
 3265SOL    HW111141   4.084   3.045   2.307
 3265SOL    HW211142   4.095   2.882   2.303
 3266SOL     OW11143   4.290   2.399   2.727
 3266SOL    HW111144   4.302   2.465   2.653
 3266SOL    HW211145   4.336   2.433   2.810
 3267SOL     OW11146   4.078   3.372   3.191
 3267SOL    HW111147   4.057   3.328   3.104
 3267SOL    HW211148   4.175   3.398   3.194
 3268SOL     OW11149   4.737   1.967   3.632
 3268SOL    HW111150   4.743   2.052   3.580
 3268SOL    HW211151   4.769   1.891   3.575
 3269SOL     OW11152   4.228   1.912   3.602
 3269SOL    HW111153   4.186   1.855   3.532
 3269SOL    HW211154   4.162   1.981   3.634
 3270SOL     OW11155   4.297   2.732   2.891
 3270SOL    HW111156   4.341   2.821   2.882
 3270SOL    HW211157   4.234   2.732   2.968
 3271SOL     OW11158   5.084   2.724   2.907
 3271SOL    HW111159   5.009   2.724   2.841
 3271SOL    HW211160   5.121   2.632   2.916
 3272SOL     OW11161   4.933   2.387   2.137
 3272SOL    HW111162   4.946   2.303   2.191
 3272SOL    HW211163   4.904   2.461   2.197
 3273SOL     OW11164   4.031   2.075   3.093
 3273SOL    HW111165   4.008   2.112   3.183
 3273SOL    HW211166   4.001   1.980   3.087
 3274SOL     OW11167   3.761   3.172   3.144
 3274SOL    HW111168   3.814   3.123   3.212
 3274SOL    HW211169   3.783   3.270   3.149
 3275SOL     OW11170   4.456   2.496   2.926
 3275SOL    HW111171   4.515   2.470   2.850
 3275SOL    HW211172   4.428   2.592   2.915
 3276SOL     OW11173   4.031   1.925   2.480
 3276SOL    HW111174   4.020   2.019   2.513
 3276SOL    HW211175   4.026   1.862   2.557
 3277SOL     OW11176   5.346   2.229   2.236
 3277SOL    HW111177   5.348   2.153   2.300
 3277SOL    HW211178   5.298   2.306   2.276
 3278SOL     OW11179   4.747   2.628   2.828
 3278SOL    HW111180   4.762   2.649   2.924
 3278SOL    HW211181   4.717   2.533   2.819
 3279SOL     OW11182   4.704   3.435   3.562
 3279SOL    HW111183   4.684   3.479   3.474
 3279SOL    HW211184   4.743   3.344   3.546
 3280SOL     OW11185   4.074   2.760   3.666
 3280SOL    HW111186   4.150   2.804   3.714
 3280SOL    HW211187   4.109   2.713   3.584
 3281SOL     OW11188   5.027   2.700   1.904
 3281SOL    HW111189   5.061   2.607   1.919
 3281SOL    HW211190   5.045   2.727   1.809
 3282SOL     OW11191   4.792   3.195   2.711
 3282SOL    HW111192   4.799   3.111   2.656
 3282SOL    HW211193   4.854   3.264   2.675
 3283SOL     OW11194   4.043   2.672   2.811
 3283SOL    HW111195   4.136   2.708   2.816
 3283SOL    HW211196   4.037   2.587   2.863
 3284SOL     OW11197   4.063   2.371   2.868
 3284SOL    HW111198   4.011   2.288   2.851
 3284SOL    HW211199   4.140   2.376   2.804
 3285SOL     OW11200   4.862   2.242   3.540
 3285SOL    HW111201   4.817   2.305   3.604
 3285SOL    HW211202   4.955   2.273   3.523
 3286SOL     OW11203   4.884   2.069   3.339
 3286SOL    HW111204   4.884   2.133   3.416
 3286SOL    HW211205   4.912   2.117   3.256
 3287SOL     OW11206   3.732   3.188   2.062
 3287SOL    HW111207   3.639   3.209   2.031
 3287SOL    HW211208   3.742   3.089   2.075
 3288SOL     OW11209   3.812   3.663   2.789
 3288SOL    HW111210   3.770   3.577   2.762
 3288SOL    HW211211   3.906   3.666   2.755
 3289SOL     OW11212   4.228   3.430   2.772
 3289SOL    HW111213   4.294   3.504   2.781
 3289SOL    HW211214   4.272   3.351   2.730
 3290SOL     OW11215   4.726   2.658   3.100
 3290SOL    HW111216   4.767   2.626   3.186
 3290SOL    HW211217   4.630   2.631   3.097
 3291SOL     OW11218   3.764   2.406   2.976
 3291SOL    HW111219   3.849   2.373   2.935
 3291SOL    HW211220   3.777   2.421   3.074
 3292SOL     OW11221   3.976   3.426   3.606
 3292SOL    HW111222   3.946   3.483   3.682
 3292SOL    HW211223   3.969   3.329   3.632
 3293SOL     OW11224   4.395   2.326   3.131
 3293SOL    HW111225   4.361   2.237   3.101
 3293SOL    HW211226   4.421   2.380   3.051
 3294SOL     OW11227   4.654   3.540   3.327
 3294SOL    HW111228   4.630   3.522   3.232
 3294SOL    HW211229   4.684   3.634   3.337
 3295SOL     OW11230   4.197   2.362   2.053
 3295SOL    HW111231   4.258   2.442   2.057
 3295SOL    HW211232   4.102   2.393   2.060
 3296SOL     OW11233   3.883   2.999   3.328
 3296SOL    HW111234   3.905   2.938   3.404
 3296SOL    HW211235   3.893   2.950   3.242
 3297SOL     OW11236   5.071   2.921   3.096
 3297SOL    HW111237   5.095   2.858   3.022
 3297SOL    HW211238   4.981   2.961   3.078
 3298SOL     OW11239   4.976   3.593   2.990
 3298SOL    HW111240   5.060   3.598   2.936
 3298SOL    HW211241   4.953   3.497   3.008
 3299SOL     OW11242   3.807   3.120   2.884
 3299SOL    HW111243   3.802   3.119   2.984
 3299SOL    HW211244   3.724   3.079   2.846
 3300SOL     OW11245   4.412   3.524   3.578
 3300SOL    HW111246   4.356   3.605   3.587
 3300SOL    HW211247   4.464   3.528   3.492
 3301SOL     OW11248   5.112   3.435   2.339
 3301SOL    HW111249   5.179   3.447   2.265
 3301SOL    HW211250   5.072   3.524   2.362
 3302SOL     OW11251   3.854   3.656   3.713
 3302SOL    HW111252   3.813   3.582   3.766
 3302SOL    HW211253   3.918   3.707   3.771
 3303SOL     OW11254   5.004   2.789   2.534
 3303SOL    HW111255   5.064   2.708   2.536
 3303SOL    HW211256   5.044   2.858   2.474
 3304SOL     OW11257   4.554   3.135   3.284
 3304SOL    HW111258   4.549   3.168   3.379
 3304SOL    HW211259   4.468   3.154   3.238
 3305SOL     OW11260   4.396   3.478   2.016
 3305SOL    HW111261   4.405   3.488   1.917
 3305SOL    HW211262   4.356   3.389   2.037
 3306SOL     OW11263   3.987   2.188   2.582
 3306SOL    HW111264   3.908   2.239   2.548
 3306SOL    HW211265   3.978   2.173   2.680
 3307SOL     OW11266   4.918   3.474   1.893
 3307SOL    HW111267   4.924   3.381   1.930
 3307SOL    HW211268   4.859   3.474   1.813
 3308SOL     OW11269   4.546   2.864   3.234
 3308SOL    HW111270   4.586   2.863   3.142
 3308SOL    HW211271   4.556   2.956   3.274
 3309SOL     OW11272   4.096   3.150   3.352
 3309SOL    HW111273   4.083   3.243   3.318
 3309SOL    HW211274   4.012   3.098   3.339
 3310SOL     OW11275   4.738   2.098   2.833
 3310SOL    HW111276   4.730   2.062   2.740
 3310SOL    HW211277   4.736   2.022   2.898
 3311SOL     OW11278   4.314   3.349   2.353
 3311SOL    HW111279   4.356   3.291   2.283
 3311SOL    HW211280   4.270   3.428   2.309
 3312SOL     OW11281   3.979   3.210   2.152
 3312SOL    HW111282   3.883   3.211   2.125
 3312SOL    HW211283   3.991   3.263   2.236
 3313SOL     OW11284   3.829   2.875   3.588
 3313SOL    HW111285   3.752   2.842   3.642
 3313SOL    HW211286   3.914   2.845   3.630
 3314SOL     OW11287   4.396   2.065   3.351
 3314SOL    HW111288   4.486   2.049   3.311
 3314SOL    HW211289   4.404   2.070   3.450
 3315SOL     OW11290   3.799   2.207   1.895
 3315SOL    HW111291   3.707   2.179   1.866
 3315SOL    HW211292   3.830   2.284   1.839
 3316SOL     OW11293   5.164   2.718   3.260
 3316SOL    HW111294   5.107   2.770   3.197
 3316SOL    HW211295   5.260   2.730   3.236
 3317SOL     OW11296   3.796   2.028   2.180
 3317SOL    HW111297   3.779   2.111   2.126
 3317SOL    HW211298   3.886   1.991   2.158
 3318SOL     OW11299   4.337   2.704   3.293
 3318SOL    HW111300   4.393   2.785   3.276
 3318SOL    HW211301   4.396   2.624   3.296
 3319SOL     OW11302   4.114   3.603   3.422
 3319SOL    HW111303   4.023   3.644   3.420
 3319SOL    HW211304   4.107   3.509   3.454
 3320SOL     OW11305   4.949   2.187   2.311
 3320SOL    HW111306   5.014   2.113   2.300
 3320SOL    HW211307   4.969   2.237   2.395
 3321SOL     OW11308   4.318   2.607   2.514
 3321SOL    HW111309   4.368   2.692   2.495
 3321SOL    HW211310   4.230   2.609   2.466
 3322SOL     OW11311   4.583   3.236   1.878
 3322SOL    HW111312   4.537   3.251   1.966
 3322SOL    HW211313   4.627   3.321   1.848
 3323SOL     OW11314   4.385   3.652   2.815
 3323SOL    HW111315   4.339   3.740   2.802
 3323SOL    HW211316   4.484   3.664   2.808
 3324SOL     OW11317   4.583   2.818   2.723
 3324SOL    HW111318   4.637   2.749   2.771
 3324SOL    HW211319   4.551   2.887   2.789
 3325SOL     OW11320   4.807   2.846   1.949
 3325SOL    HW111321   4.784   2.899   1.867
 3325SOL    HW211322   4.888   2.790   1.930
 3326SOL     OW11323   3.945   3.176   3.706
 3326SOL    HW111324   3.880   3.103   3.685
 3326SOL    HW211325   3.949   3.190   3.804
 3327SOL     OW11326   3.803   3.102   2.515
 3327SOL    HW111327   3.802   3.055   2.603
 3327SOL    HW211328   3.885   3.074   2.464
 3328SOL     OW11329   4.396   3.253   3.486
 3328SOL    HW111330   4.318   3.203   3.524
 3328SOL    HW211331   4.393   3.348   3.517
 3329SOL     OW11332   4.152   2.286   2.382
 3329SOL    HW111333   4.182   2.214   2.320
 3329SOL    HW211334   4.113   2.246   2.465
 3330SOL     OW11335   4.041   2.409   3.142
 3330SOL    HW111336   4.079   2.350   3.214
 3330SOL    HW211337   4.081   2.383   3.054
 3331SOL     OW11338   4.536   3.448   2.549
 3331SOL    HW111339   4.568   3.458   2.455
 3331SOL    HW211340   4.457   3.386   2.551
 3332SOL     OW11341   4.725   1.896   3.016
 3332SOL    HW111342   4.662   1.824   2.985
 3332SOL    HW211343   4.818   1.860   3.016
 3333SOL     OW11344   4.494   3.192   2.163
 3333SOL    HW111345   4.448   3.105   2.180
 3333SOL    HW211346   4.585   3.189   2.204
 3334SOL     OW11347   4.342   3.429   3.146
 3334SOL    HW111348   4.337   3.511   3.203
 3334SOL    HW211349   4.431   3.426   3.101
 3335SOL     OW11350   5.076   1.914   2.030
 3335SOL    HW111351   5.111   1.873   1.946
 3335SOL    HW211352   4.986   1.876   2.050
 3336SOL     OW11353   3.763   2.939   2.162
 3336SOL    HW111354   3.862   2.928   2.153
 3336SOL    HW211355   3.723   2.853   2.194
 3337SOL     OW11356   4.599   3.508   2.199
 3337SOL    HW111357   4.522   3.473   2.145
 3337SOL    HW211358   4.567   3.579   2.261
 3338SOL     OW11359   3.949   2.137   4.720
 3338SOL    HW111360   3.984   2.120   4.812
 3338SOL    HW211361   3.861   2.092   4.708
 3339SOL     OW11362   3.743   2.230   4.371
 3339SOL    HW111363   3.661   2.273   4.410
 3339SOL    HW211364   3.715   2.157   4.308
 3340SOL     OW11365   4.293   3.137   4.889
 3340SOL    HW111366   4.200   3.130   4.852
 3340SOL    HW211367   4.304   3.226   4.933
 3341SOL     OW11368   4.859   2.565   4.441
 3341SOL    HW111369   4.916   2.643   4.416
 3341SOL    HW211370   4.799   2.591   4.517
 3342SOL     OW11371   4.492   3.006   4.747
 3342SOL    HW111372   4.414   3.023   4.807
 3342SOL    HW211373   4.526   3.093   4.711
 3343SOL     OW11374   4.409   2.874   4.389
 3343SOL    HW111375   4.478   2.858   4.459
 3343SOL    HW211376   4.336   2.931   4.427
 3344SOL     OW11377   3.955   3.575   4.207
 3344SOL    HW111378   3.989   3.652   4.261
 3344SOL    HW211379   3.999   3.575   4.117
 3345SOL     OW11380   3.954   3.296   4.262
 3345SOL    HW111381   3.928   3.392   4.262
 3345SOL    HW211382   3.883   3.242   4.307
 3346SOL     OW11383   3.964   2.953   4.610
 3346SOL    HW111384   3.978   2.869   4.662
 3346SOL    HW211385   3.909   3.017   4.665
 3347SOL     OW11386   4.344   3.648   5.163
 3347SOL    HW111387   4.252   3.631   5.198
 3347SOL    HW211388   4.372   3.740   5.189
 3348SOL     OW11389   4.330   2.826   3.847
 3348SOL    HW111390   4.337   2.910   3.793
 3348SOL    HW211391   4.376   2.839   3.935
 3349SOL     OW11392   3.846   2.505   4.287
 3349SOL    HW111393   3.801   2.417   4.304
 3349SOL    HW211394   3.845   2.559   4.371
 3350SOL     OW11395   3.751   3.458   3.841
 3350SOL    HW111396   3.732   3.362   3.862
 3350SOL    HW211397   3.718   3.516   3.916
 3351SOL     OW11398   4.337   3.227   4.450
 3351SOL    HW111399   4.288   3.140   4.459
 3351SOL    HW211400   4.314   3.270   4.363
 3352SOL     OW11401   4.533   1.866   4.226
 3352SOL    HW111402   4.573   1.957   4.217
 3352SOL    HW211403   4.433   1.874   4.232
 3353SOL     OW11404   3.921   2.838   4.988
 3353SOL    HW111405   4.010   2.793   4.974
 3353SOL    HW211406   3.848   2.773   4.969
 3354SOL     OW11407   4.322   2.591   3.994
 3354SOL    HW111408   4.346   2.660   3.926
 3354SOL    HW211409   4.244   2.624   4.048
 3355SOL     OW11410   5.005   2.207   4.668
 3355SOL    HW111411   4.919   2.157   4.655
 3355SOL    HW211412   5.067   2.153   4.724
 3356SOL     OW11413   4.715   2.272   4.966
 3356SOL    HW111414   4.638   2.306   5.020
 3356SOL    HW211415   4.681   2.221   4.887
 3357SOL     OW11416   4.765   2.563   4.153
 3357SOL    HW111417   4.791   2.559   4.249
 3357SOL    HW211418   4.680   2.512   4.139
 3358SOL     OW11419   3.800   2.673   4.513
 3358SOL    HW111420   3.899   2.661   4.522
 3358SOL    HW211421   3.776   2.768   4.534
 3359SOL     OW11422   4.589   2.210   3.919
 3359SOL    HW111423   4.648   2.273   3.870
 3359SOL    HW211424   4.608   2.116   3.890
 3360SOL     OW11425   4.274   2.058   4.609
 3360SOL    HW111426   4.269   2.053   4.709
 3360SOL    HW211427   4.276   2.154   4.580
 3361SOL     OW11428   4.732   3.318   4.201
 3361SOL    HW111429   4.686   3.390   4.149
 3361SOL    HW211430   4.728   3.338   4.299
 3362SOL     OW11431   4.075   3.663   4.577
 3362SOL    HW111432   4.125   3.577   4.583
 3362SOL    HW211433   4.140   3.740   4.574
 3363SOL     OW11434   4.045   2.805   3.966
 3363SOL    HW111435   4.127   2.844   3.924
 3363SOL    HW211436   4.018   2.723   3.917
 3364SOL     OW11437   4.835   3.638   3.961
 3364SOL    HW111438   4.775   3.576   4.011
 3364SOL    HW211439   4.866   3.594   3.876
 3365SOL     OW11440   4.188   3.605   4.047
 3365SOL    HW111441   4.221   3.644   4.133
 3365SOL    HW211442   4.264   3.598   3.982
 3366SOL     OW11443   3.973   3.647   4.965
 3366SOL    HW111444   4.030   3.582   5.015
 3366SOL    HW211445   3.957   3.614   4.872
 3367SOL     OW11446   4.664   3.560   4.628
 3367SOL    HW111447   4.744   3.503   4.649
 3367SOL    HW211448   4.615   3.520   4.551
 3368SOL     OW11449   4.106   2.562   4.204
 3368SOL    HW111450   4.151   2.472   4.201
 3368SOL    HW211451   4.012   2.551   4.237
 3369SOL     OW11452   4.527   3.264   4.648
 3369SOL    HW111453   4.617   3.278   4.606
 3369SOL    HW211454   4.456   3.266   4.577
 3370SOL     OW11455   4.646   2.365   4.623
 3370SOL    HW111456   4.621   2.356   4.527
 3370SOL    HW211457   4.694   2.283   4.654
 3371SOL     OW11458   4.263   1.926   4.236
 3371SOL    HW111459   4.182   1.927   4.294
 3371SOL    HW211460   4.266   2.009   4.181
 3372SOL     OW11461   4.659   2.098   4.204
 3372SOL    HW111462   4.611   2.139   4.126
 3372SOL    HW211463   4.758   2.096   4.185
 3373SOL     OW11464   4.951   3.432   4.517
 3373SOL    HW111465   4.972   3.506   4.452
 3373SOL    HW211466   5.019   3.432   4.590
 3374SOL     OW11467   4.183   3.014   4.465
 3374SOL    HW111468   4.112   2.987   4.530
 3374SOL    HW211469   4.157   2.986   4.372
 3375SOL     OW11470   4.995   3.659   4.315
 3375SOL    HW111471   5.039   3.723   4.251
 3375SOL    HW211472   4.945   3.711   4.385
 3376SOL     OW11473   4.756   2.411   3.740
 3376SOL    HW111474   4.715   2.493   3.701
 3376SOL    HW211475   4.820   2.437   3.813
 3377SOL     OW11476   4.285   2.084   4.871
 3377SOL    HW111477   4.323   2.000   4.908
 3377SOL    HW211478   4.197   2.103   4.915
 3378SOL     OW11479   4.590   2.316   4.366
 3378SOL    HW111480   4.558   2.388   4.304
 3378SOL    HW211481   4.614   2.235   4.313
 3379SOL     OW11482   4.741   1.901   4.477
 3379SOL    HW111483   4.669   1.906   4.408
 3379SOL    HW211484   4.717   1.832   4.546
 3380SOL     OW11485   4.212   3.247   3.898
 3380SOL    HW111486   4.125   3.232   3.945
 3380SOL    HW211487   4.195   3.273   3.803
 3381SOL     OW11488   5.388   3.142   4.381
 3381SOL    HW111489   5.487   3.150   4.395
 3381SOL    HW211490   5.343   3.226   4.412
 3382SOL     OW11491   4.251   2.118   4.052
 3382SOL    HW111492   4.278   2.059   3.977
 3382SOL    HW211493   4.251   2.213   4.021
 3383SOL     OW11494   5.316   3.491   5.349
 3383SOL    HW111495   5.343   3.525   5.259
 3383SOL    HW211496   5.395   3.453   5.395
 3384SOL     OW11497   4.835   3.057   4.824
 3384SOL    HW111498   4.795   3.101   4.905
 3384SOL    HW211499   4.794   3.094   4.741
 3385SOL     OW11500   4.429   2.912   4.092
 3385SOL    HW111501   4.415   2.919   4.191
 3385SOL    HW211502   4.513   2.861   4.074
 3386SOL     OW11503   4.134   2.675   4.975
 3386SOL    HW111504   4.220   2.687   5.025
 3386SOL    HW211505   4.092   2.588   5.002
 3387SOL     OW11506   4.091   2.962   4.225
 3387SOL    HW111507   4.084   3.045   4.169
 3387SOL    HW211508   4.095   2.882   4.165
 3388SOL     OW11509   4.290   2.399   4.589
 3388SOL    HW111510   4.302   2.465   4.515
 3388SOL    HW211511   4.336   2.433   4.672
 3389SOL     OW11512   4.297   2.732   4.753
 3389SOL    HW111513   4.341   2.821   4.744
 3389SOL    HW211514   4.234   2.732   4.830
 3390SOL     OW11515   5.084   2.724   4.769
 3390SOL    HW111516   5.009   2.724   4.703
 3390SOL    HW211517   5.121   2.632   4.778
 3391SOL     OW11518   4.933   2.387   3.999
 3391SOL    HW111519   4.946   2.303   4.053
 3391SOL    HW211520   4.904   2.461   4.059
 3392SOL     OW11521   4.031   2.075   4.955
 3392SOL    HW111522   4.008   2.112   5.045
 3392SOL    HW211523   4.001   1.980   4.949
 3393SOL     OW11524   4.456   2.496   4.788
 3393SOL    HW111525   4.515   2.470   4.712
 3393SOL    HW211526   4.428   2.592   4.777
 3394SOL     OW11527   5.346   2.229   4.098
 3394SOL    HW111528   5.348   2.153   4.162
 3394SOL    HW211529   5.298   2.306   4.138
 3395SOL     OW11530   4.747   2.628   4.690
 3395SOL    HW111531   4.762   2.649   4.786
 3395SOL    HW211532   4.717   2.533   4.681
 3396SOL     OW11533   5.027   2.700   3.766
 3396SOL    HW111534   5.061   2.607   3.781
 3396SOL    HW211535   5.045   2.727   3.671
 3397SOL     OW11536   4.792   3.195   4.573
 3397SOL    HW111537   4.799   3.111   4.518
 3397SOL    HW211538   4.854   3.264   4.537
 3398SOL     OW11539   4.043   2.672   4.673
 3398SOL    HW111540   4.136   2.708   4.678
 3398SOL    HW211541   4.037   2.587   4.725
 3399SOL     OW11542   4.063   2.371   4.730
 3399SOL    HW111543   4.011   2.288   4.713
 3399SOL    HW211544   4.140   2.376   4.666
 3400SOL     OW11545   4.884   2.069   5.201
 3400SOL    HW111546   4.884   2.133   5.278
 3400SOL    HW211547   4.912   2.117   5.118
 3401SOL     OW11548   3.732   3.188   3.924
 3401SOL    HW111549   3.639   3.209   3.893
 3401SOL    HW211550   3.742   3.089   3.937
 3402SOL     OW11551   3.812   3.663   4.651
 3402SOL    HW111552   3.770   3.577   4.624
 3402SOL    HW211553   3.906   3.666   4.617
 3403SOL     OW11554   4.228   3.430   4.634
 3403SOL    HW111555   4.294   3.504   4.643
 3403SOL    HW211556   4.272   3.351   4.592
 3404SOL     OW11557   4.726   2.658   4.962
 3404SOL    HW111558   4.767   2.626   5.048
 3404SOL    HW211559   4.630   2.631   4.959
 3405SOL     OW11560   3.764   2.406   4.838
 3405SOL    HW111561   3.849   2.373   4.797
 3405SOL    HW211562   3.777   2.421   4.936
 3406SOL     OW11563   4.539   2.434   4.049
 3406SOL    HW111564   4.546   2.345   4.003
 3406SOL    HW211565   4.445   2.468   4.041
 3407SOL     OW11566   4.395   2.326   4.993
 3407SOL    HW111567   4.361   2.237   4.963
 3407SOL    HW211568   4.421   2.380   4.913
 3408SOL     OW11569   4.654   3.540   5.189
 3408SOL    HW111570   4.630   3.522   5.094
 3408SOL    HW211571   4.684   3.634   5.199
 3409SOL     OW11572   4.197   2.362   3.915
 3409SOL    HW111573   4.258   2.442   3.919
 3409SOL    HW211574   4.102   2.393   3.922
 3410SOL     OW11575   5.071   2.921   4.958
 3410SOL    HW111576   5.095   2.858   4.884
 3410SOL    HW211577   4.981   2.961   4.940
 3411SOL     OW11578   4.976   3.593   4.852
 3411SOL    HW111579   5.060   3.598   4.798
 3411SOL    HW211580   4.953   3.497   4.870
 3412SOL     OW11581   3.807   3.120   4.746
 3412SOL    HW111582   3.802   3.119   4.846
 3412SOL    HW211583   3.724   3.079   4.708
 3413SOL     OW11584   5.112   3.435   4.201
 3413SOL    HW111585   5.179   3.447   4.127
 3413SOL    HW211586   5.072   3.524   4.224
 3414SOL     OW11587   5.004   2.789   4.396
 3414SOL    HW111588   5.064   2.708   4.398
 3414SOL    HW211589   5.044   2.858   4.336
 3415SOL     OW11590   4.396   3.478   3.878
 3415SOL    HW111591   4.405   3.488   3.779
 3415SOL    HW211592   4.356   3.389   3.899
 3416SOL     OW11593   3.987   2.188   4.444
 3416SOL    HW111594   3.908   2.239   4.410
 3416SOL    HW211595   3.978   2.173   4.542
 3417SOL     OW11596   4.918   3.474   3.755
 3417SOL    HW111597   4.924   3.381   3.792
 3417SOL    HW211598   4.859   3.474   3.675
 3418SOL     OW11599   4.546   2.864   5.096
 3418SOL    HW111600   4.586   2.863   5.004
 3418SOL    HW211601   4.556   2.956   5.136
 3419SOL     OW11602   4.640   2.772   4.015
 3419SOL    HW111603   4.703   2.810   3.947
 3419SOL    HW211604   4.680   2.689   4.054
 3420SOL     OW11605   4.763   2.960   4.420
 3420SOL    HW111606   4.693   2.913   4.474
 3420SOL    HW211607   4.822   2.892   4.377
 3421SOL     OW11608   4.738   2.098   4.695
 3421SOL    HW111609   4.730   2.062   4.602
 3421SOL    HW211610   4.736   2.022   4.760
 3422SOL     OW11611   4.314   3.349   4.215
 3422SOL    HW111612   4.356   3.291   4.145
 3422SOL    HW211613   4.270   3.428   4.171
 3423SOL     OW11614   3.979   3.210   4.014
 3423SOL    HW111615   3.883   3.211   3.987
 3423SOL    HW211616   3.991   3.263   4.098
 3424SOL     OW11617   3.796   2.028   4.042
 3424SOL    HW111618   3.779   2.111   3.988
 3424SOL    HW211619   3.886   1.991   4.020
 3425SOL     OW11620   4.949   2.187   4.173
 3425SOL    HW111621   5.014   2.113   4.162
 3425SOL    HW211622   4.969   2.237   4.257
 3426SOL     OW11623   4.318   2.607   4.376
 3426SOL    HW111624   4.368   2.692   4.357
 3426SOL    HW211625   4.230   2.609   4.328
 3427SOL     OW11626   4.583   3.236   3.740
 3427SOL    HW111627   4.537   3.251   3.828
 3427SOL    HW211628   4.627   3.321   3.710
 3428SOL     OW11629   4.385   3.652   4.677
 3428SOL    HW111630   4.339   3.740   4.664
 3428SOL    HW211631   4.484   3.664   4.670
 3429SOL     OW11632   4.583   2.818   4.585
 3429SOL    HW111633   4.637   2.749   4.633
 3429SOL    HW211634   4.551   2.887   4.651
 3430SOL     OW11635   4.807   2.846   3.811
 3430SOL    HW111636   4.784   2.899   3.729
 3430SOL    HW211637   4.888   2.790   3.792
 3431SOL     OW11638   3.803   3.102   4.377
 3431SOL    HW111639   3.802   3.055   4.465
 3431SOL    HW211640   3.885   3.074   4.326
 3432SOL     OW11641   4.152   2.286   4.244
 3432SOL    HW111642   4.182   2.214   4.182
 3432SOL    HW211643   4.113   2.246   4.327
 3433SOL     OW11644   4.536   3.448   4.411
 3433SOL    HW111645   4.568   3.458   4.317
 3433SOL    HW211646   4.457   3.386   4.413
 3434SOL     OW11647   4.725   1.896   4.878
 3434SOL    HW111648   4.662   1.824   4.847
 3434SOL    HW211649   4.818   1.860   4.878
 3435SOL     OW11650   4.494   3.192   4.025
 3435SOL    HW111651   4.448   3.105   4.042
 3435SOL    HW211652   4.585   3.189   4.066
 3436SOL     OW11653   5.076   1.914   3.892
 3436SOL    HW111654   5.111   1.873   3.808
 3436SOL    HW211655   4.986   1.876   3.912
 3437SOL     OW11656   3.763   2.939   4.024
 3437SOL    HW111657   3.862   2.928   4.015
 3437SOL    HW211658   3.723   2.853   4.056
 3438SOL     OW11659   4.599   3.508   4.061
 3438SOL    HW111660   4.522   3.473   4.007
 3438SOL    HW211661   4.567   3.579   4.123
 3439SOL     OW11662   3.954   4.352   0.113
 3439SOL    HW111663   3.861   4.350   0.150
 3439SOL    HW211664   3.955   4.313   0.021
 3440SOL     OW11665   3.949   3.999   0.996
 3440SOL    HW111666   3.984   3.982   1.088
 3440SOL    HW211667   3.861   3.954   0.984
 3441SOL     OW11668   3.743   4.092   0.647
 3441SOL    HW111669   3.661   4.135   0.686
 3441SOL    HW211670   3.715   4.019   0.584
 3442SOL     OW11671   4.859   4.427   0.717
 3442SOL    HW111672   4.916   4.505   0.692
 3442SOL    HW211673   4.799   4.453   0.793
 3443SOL     OW11674   4.492   4.868   1.023
 3443SOL    HW111675   4.414   4.885   1.083
 3443SOL    HW211676   4.526   4.955   0.987
 3444SOL     OW11677   4.574   4.522   1.823
 3444SOL    HW111678   4.570   4.598   1.888
 3444SOL    HW211679   4.596   4.558   1.732
 3445SOL     OW11680   4.409   4.736   0.665
 3445SOL    HW111681   4.478   4.720   0.735
 3445SOL    HW211682   4.336   4.793   0.703
 3446SOL     OW11683   4.410   4.885   1.803
 3446SOL    HW111684   4.470   4.964   1.817
 3446SOL    HW211685   4.324   4.916   1.762
 3447SOL     OW11686   4.059   5.159   1.061
 3447SOL    HW111687   3.981   5.128   1.008
 3447SOL    HW211688   4.117   5.217   1.004
 3448SOL     OW11689   4.162   4.116   1.499
 3448SOL    HW111690   4.244   4.060   1.508
 3448SOL    HW211691   4.081   4.058   1.503
 3449SOL     OW11692   3.964   4.815   0.886
 3449SOL    HW111693   3.978   4.731   0.938
 3449SOL    HW211694   3.909   4.879   0.941
 3450SOL     OW11695   3.846   4.367   0.563
 3450SOL    HW111696   3.801   4.279   0.580
 3450SOL    HW211697   3.845   4.421   0.647
 3451SOL     OW11698   3.837   4.461   1.597
 3451SOL    HW111699   3.925   4.448   1.642
 3451SOL    HW211700   3.824   4.558   1.575
 3452SOL     OW11701   5.017   4.952   1.423
 3452SOL    HW111702   5.054   4.879   1.365
 3452SOL    HW211703   5.069   4.957   1.508
 3453SOL     OW11704   4.533   3.728   0.502
 3453SOL    HW111705   4.573   3.819   0.493
 3453SOL    HW211706   4.433   3.736   0.508
 3454SOL     OW11707   3.921   4.700   1.264
 3454SOL    HW111708   4.010   4.655   1.250
 3454SOL    HW211709   3.848   4.635   1.245
 3455SOL     OW11710   4.322   4.453   0.270
 3455SOL    HW111711   4.346   4.522   0.202
 3455SOL    HW211712   4.244   4.486   0.324
 3456SOL     OW11713   5.005   4.069   0.944
 3456SOL    HW111714   4.919   4.019   0.931
 3456SOL    HW211715   5.067   4.015   1.000
 3457SOL     OW11716   4.531   4.329   1.465
 3457SOL    HW111717   4.484   4.326   1.554
 3457SOL    HW211718   4.480   4.274   1.399
 3458SOL     OW11719   4.697   4.614   1.572
 3458SOL    HW111720   4.743   4.530   1.543
 3458SOL    HW211721   4.641   4.648   1.497
 3459SOL     OW11722   4.715   4.134   1.242
 3459SOL    HW111723   4.638   4.168   1.296
 3459SOL    HW211724   4.681   4.083   1.163
 3460SOL     OW11725   3.800   4.535   0.789
 3460SOL    HW111726   3.899   4.523   0.798
 3460SOL    HW211727   3.776   4.630   0.810
 3461SOL     OW11728   4.589   4.072   0.195
 3461SOL    HW111729   4.648   4.135   0.146
 3461SOL    HW211730   4.608   3.978   0.166
 3462SOL     OW11731   4.274   3.920   0.885
 3462SOL    HW111732   4.269   3.915   0.985
 3462SOL    HW211733   4.276   4.016   0.856
 3463SOL     OW11734   4.045   4.667   0.242
 3463SOL    HW111735   4.127   4.706   0.200
 3463SOL    HW211736   4.018   4.585   0.193
 3464SOL     OW11737   4.106   4.424   0.480
 3464SOL    HW111738   4.151   4.334   0.477
 3464SOL    HW211739   4.012   4.413   0.513
 3465SOL     OW11740   4.505   3.988   1.749
 3465SOL    HW111741   4.572   3.927   1.792
 3465SOL    HW211742   4.432   4.007   1.814
 3466SOL     OW11743   4.646   4.227   0.899
 3466SOL    HW111744   4.621   4.218   0.803
 3466SOL    HW211745   4.694   4.145   0.930
 3467SOL     OW11746   4.263   3.788   0.512
 3467SOL    HW111747   4.182   3.789   0.570
 3467SOL    HW211748   4.266   3.871   0.457
 3468SOL     OW11749   4.021   3.759   0.171
 3468SOL    HW111750   4.070   3.843   0.150
 3468SOL    HW211751   4.083   3.694   0.216
 3469SOL     OW11752   4.659   3.960   0.480
 3469SOL    HW111753   4.611   4.001   0.402
 3469SOL    HW211754   4.758   3.958   0.461
 3470SOL     OW11755   4.800   4.407   1.464
 3470SOL    HW111756   4.720   4.346   1.467
 3470SOL    HW211757   4.881   4.354   1.440
 3471SOL     OW11758   4.951   5.294   0.793
 3471SOL    HW111759   4.972   5.368   0.728
 3471SOL    HW211760   5.019   5.294   0.866
 3472SOL     OW11761   4.183   4.876   0.741
 3472SOL    HW111762   4.112   4.849   0.806
 3472SOL    HW211763   4.157   4.848   0.648
 3473SOL     OW11764   4.756   4.273   0.016
 3473SOL    HW111765   4.715   4.355  -0.023
 3473SOL    HW211766   4.820   4.299   0.089
 3474SOL     OW11767   3.802   4.280   1.386
 3474SOL    HW111768   3.894   4.279   1.345
 3474SOL    HW211769   3.796   4.354   1.453
 3475SOL     OW11770   4.285   3.946   1.147
 3475SOL    HW111771   4.323   3.862   1.184
 3475SOL    HW211772   4.197   3.965   1.191
 3476SOL     OW11773   4.590   4.178   0.642
 3476SOL    HW111774   4.558   4.250   0.580
 3476SOL    HW211775   4.614   4.097   0.589
 3477SOL     OW11776   4.741   3.763   0.753
 3477SOL    HW111777   4.669   3.768   0.684
 3477SOL    HW211778   4.717   3.694   0.822
 3478SOL     OW11779   4.251   3.980   0.328
 3478SOL    HW111780   4.278   3.921   0.253
 3478SOL    HW211781   4.251   4.075   0.297
 3479SOL     OW11782   4.639   3.813   1.402
 3479SOL    HW111783   4.664   3.793   1.307
 3479SOL    HW211784   4.711   3.869   1.444
 3480SOL     OW11785   4.704   4.840   1.719
 3480SOL    HW111786   4.605   4.846   1.729
 3480SOL    HW211787   4.727   4.760   1.663
 3481SOL     OW11788   4.134   4.537   1.251
 3481SOL    HW111789   4.220   4.549   1.301
 3481SOL    HW211790   4.092   4.450   1.278
 3482SOL     OW11791   4.998   4.110   1.262
 3482SOL    HW111792   5.019   4.184   1.326
 3482SOL    HW211793   4.909   4.127   1.219
 3483SOL     OW11794   4.091   4.824   0.501
 3483SOL    HW111795   4.084   4.907   0.445
 3483SOL    HW211796   4.095   4.744   0.441
 3484SOL     OW11797   4.290   4.261   0.865
 3484SOL    HW111798   4.302   4.327   0.791
 3484SOL    HW211799   4.336   4.295   0.948
 3485SOL     OW11800   4.126   4.475   1.598
 3485SOL    HW111801   4.194   4.530   1.551
 3485SOL    HW211802   4.166   4.387   1.625
 3486SOL     OW11803   4.737   3.829   1.770
 3486SOL    HW111804   4.743   3.914   1.718
 3486SOL    HW211805   4.769   3.753   1.713
 3487SOL     OW11806   4.297   4.594   1.029
 3487SOL    HW111807   4.341   4.683   1.020
 3487SOL    HW211808   4.234   4.594   1.106
 3488SOL     OW11809   4.456   4.358   1.064
 3488SOL    HW111810   4.515   4.332   0.988
 3488SOL    HW211811   4.428   4.454   1.053
 3489SOL     OW11812   4.031   3.787   0.618
 3489SOL    HW111813   4.020   3.881   0.651
 3489SOL    HW211814   4.026   3.724   0.695
 3490SOL     OW11815   5.346   4.091   0.374
 3490SOL    HW111816   5.348   4.015   0.438
 3490SOL    HW211817   5.298   4.168   0.414
 3491SOL     OW11818   4.747   4.490   0.966
 3491SOL    HW111819   4.762   4.511   1.062
 3491SOL    HW211820   4.717   4.395   0.957
 3492SOL     OW11821   4.074   4.622   1.804
 3492SOL    HW111822   4.150   4.666   1.852
 3492SOL    HW211823   4.109   4.575   1.722
 3493SOL     OW11824   5.027   4.562   0.042
 3493SOL    HW111825   5.061   4.469   0.057
 3493SOL    HW211826   5.045   4.589  -0.053
 3494SOL     OW11827   4.043   4.534   0.949
 3494SOL    HW111828   4.136   4.570   0.954
 3494SOL    HW211829   4.037   4.449   1.001
 3495SOL     OW11830   4.063   4.233   1.006
 3495SOL    HW111831   4.011   4.150   0.989
 3495SOL    HW211832   4.140   4.238   0.942
 3496SOL     OW11833   4.862   4.104   1.678
 3496SOL    HW111834   4.817   4.167   1.742
 3496SOL    HW211835   4.955   4.135   1.661
 3497SOL     OW11836   4.884   3.931   1.477
 3497SOL    HW111837   4.884   3.995   1.554
 3497SOL    HW211838   4.912   3.979   1.394
 3498SOL     OW11839   4.726   4.520   1.238
 3498SOL    HW111840   4.767   4.488   1.324
 3498SOL    HW211841   4.630   4.493   1.235
 3499SOL     OW11842   3.764   4.268   1.114
 3499SOL    HW111843   3.849   4.235   1.073
 3499SOL    HW211844   3.777   4.283   1.212
 3500SOL     OW11845   4.539   4.296   0.325
 3500SOL    HW111846   4.546   4.207   0.279
 3500SOL    HW211847   4.445   4.330   0.317
 3501SOL     OW11848   4.395   4.188   1.269
 3501SOL    HW111849   4.361   4.099   1.239
 3501SOL    HW211850   4.421   4.242   1.189
 3502SOL     OW11851   4.197   4.224   0.191
 3502SOL    HW111852   4.258   4.304   0.195
 3502SOL    HW211853   4.102   4.255   0.198
 3503SOL     OW11854   3.807   4.982   1.022
 3503SOL    HW111855   3.802   4.981   1.122
 3503SOL    HW211856   3.724   4.941   0.984
 3504SOL     OW11857   4.627   3.810   0.133
 3504SOL    HW111858   4.678   3.811   0.047
 3504SOL    HW211859   4.683   3.768   0.204
 3505SOL     OW11860   3.987   4.050   0.720
 3505SOL    HW111861   3.908   4.101   0.686
 3505SOL    HW211862   3.978   4.035   0.818
 3506SOL     OW11863   4.546   4.726   1.372
 3506SOL    HW111864   4.586   4.725   1.280
 3506SOL    HW211865   4.556   4.818   1.412
 3507SOL     OW11866   4.763   4.822   0.696
 3507SOL    HW111867   4.693   4.775   0.750
 3507SOL    HW211868   4.822   4.754   0.653
 3508SOL     OW11869   4.738   3.960   0.971
 3508SOL    HW111870   4.730   3.924   0.878
 3508SOL    HW211871   4.736   3.884   1.036
 3509SOL     OW11872   4.396   3.927   1.489
 3509SOL    HW111873   4.486   3.911   1.449
 3509SOL    HW211874   4.404   3.932   1.588
 3510SOL     OW11875   5.164   4.580   1.398
 3510SOL    HW111876   5.107   4.632   1.335
 3510SOL    HW211877   5.260   4.592   1.374
 3511SOL     OW11878   4.337   4.566   1.431
 3511SOL    HW111879   4.393   4.647   1.414
 3511SOL    HW211880   4.396   4.486   1.434
 3512SOL     OW11881   4.440   4.289   1.708
 3512SOL    HW111882   4.459   4.354   1.782
 3512SOL    HW211883   4.500   4.209   1.717
 3513SOL     OW11884   5.174   4.944   1.633
 3513SOL    HW111885   5.165   4.934   1.732
 3513SOL    HW211886   5.270   4.937   1.607
 3514SOL     OW11887   4.318   4.469   0.652
 3514SOL    HW111888   4.368   4.554   0.633
 3514SOL    HW211889   4.230   4.471   0.604
 3515SOL     OW11890   4.583   4.680   0.861
 3515SOL    HW111891   4.637   4.611   0.909
 3515SOL    HW211892   4.551   4.749   0.927
 3516SOL     OW11893   4.807   4.708   0.087
 3516SOL    HW111894   4.784   4.761   0.005
 3516SOL    HW211895   4.888   4.652   0.068
 3517SOL     OW11896   3.803   4.964   0.653
 3517SOL    HW111897   3.802   4.917   0.741
 3517SOL    HW211898   3.885   4.936   0.602
 3518SOL     OW11899   4.152   4.148   0.520
 3518SOL    HW111900   4.182   4.076   0.458
 3518SOL    HW211901   4.113   4.108   0.603
 3519SOL     OW11902   4.041   4.271   1.280
 3519SOL    HW111903   4.079   4.212   1.352
 3519SOL    HW211904   4.081   4.245   1.192
 3520SOL     OW11905   4.725   3.758   1.154
 3520SOL    HW111906   4.662   3.686   1.123
 3520SOL    HW211907   4.818   3.722   1.154
 3521SOL     OW11908   3.763   4.801   0.300
 3521SOL    HW111909   3.862   4.790   0.291
 3521SOL    HW211910   3.723   4.715   0.332
 3522SOL     OW11911   3.949   3.999   2.858
 3522SOL    HW111912   3.984   3.982   2.950
 3522SOL    HW211913   3.861   3.954   2.846
 3523SOL     OW11914   3.743   4.092   2.509
 3523SOL    HW111915   3.661   4.135   2.548
 3523SOL    HW211916   3.715   4.019   2.446
 3524SOL     OW11917   4.293   4.999   3.027
 3524SOL    HW111918   4.200   4.992   2.990
 3524SOL    HW211919   4.304   5.088   3.071
 3525SOL     OW11920   4.859   4.427   2.579
 3525SOL    HW111921   4.916   4.505   2.554
 3525SOL    HW211922   4.799   4.453   2.655
 3526SOL     OW11923   4.492   4.868   2.885
 3526SOL    HW111924   4.414   4.885   2.945
 3526SOL    HW211925   4.526   4.955   2.849
 3527SOL     OW11926   4.574   4.522   3.685
 3527SOL    HW111927   4.570   4.598   3.750
 3527SOL    HW211928   4.596   4.558   3.594
 3528SOL     OW11929   4.410   4.885   3.665
 3528SOL    HW111930   4.470   4.964   3.679
 3528SOL    HW211931   4.324   4.916   3.624
 3529SOL     OW11932   4.059   5.159   2.923
 3529SOL    HW111933   3.981   5.128   2.870
 3529SOL    HW211934   4.117   5.217   2.866
 3530SOL     OW11935   4.162   4.116   3.361
 3530SOL    HW111936   4.244   4.060   3.370
 3530SOL    HW211937   4.081   4.058   3.365
 3531SOL     OW11938   3.964   4.815   2.748
 3531SOL    HW111939   3.978   4.731   2.800
 3531SOL    HW211940   3.909   4.879   2.803
 3532SOL     OW11941   4.330   4.688   1.985
 3532SOL    HW111942   4.337   4.772   1.931
 3532SOL    HW211943   4.376   4.701   2.073
 3533SOL     OW11944   3.846   4.367   2.425
 3533SOL    HW111945   3.801   4.279   2.442
 3533SOL    HW211946   3.845   4.421   2.509
 3534SOL     OW11947   5.017   4.952   3.285
 3534SOL    HW111948   5.054   4.879   3.227
 3534SOL    HW211949   5.069   4.957   3.370
 3535SOL     OW11950   4.533   3.728   2.364
 3535SOL    HW111951   4.573   3.819   2.355
 3535SOL    HW211952   4.433   3.736   2.370
 3536SOL     OW11953   3.921   4.700   3.126
 3536SOL    HW111954   4.010   4.655   3.112
 3536SOL    HW211955   3.848   4.635   3.107
 3537SOL     OW11956   4.322   4.453   2.132
 3537SOL    HW111957   4.346   4.522   2.064
 3537SOL    HW211958   4.244   4.486   2.186
 3538SOL     OW11959   5.005   4.069   2.806
 3538SOL    HW111960   4.919   4.019   2.793
 3538SOL    HW211961   5.067   4.015   2.862
 3539SOL     OW11962   4.531   4.329   3.327
 3539SOL    HW111963   4.484   4.326   3.416
 3539SOL    HW211964   4.480   4.274   3.261
 3540SOL     OW11965   4.697   4.614   3.434
 3540SOL    HW111966   4.743   4.530   3.405
 3540SOL    HW211967   4.641   4.648   3.359
 3541SOL     OW11968   4.715   4.134   3.104
 3541SOL    HW111969   4.638   4.168   3.158
 3541SOL    HW211970   4.681   4.083   3.025
 3542SOL     OW11971   3.800   4.535   2.651
 3542SOL    HW111972   3.899   4.523   2.660
 3542SOL    HW211973   3.776   4.630   2.672
 3543SOL     OW11974   4.589   4.072   2.057
 3543SOL    HW111975   4.648   4.135   2.008
 3543SOL    HW211976   4.608   3.978   2.028
 3544SOL     OW11977   4.274   3.920   2.747
 3544SOL    HW111978   4.269   3.915   2.847
 3544SOL    HW211979   4.276   4.016   2.718
 3545SOL     OW11980   4.045   4.667   2.104
 3545SOL    HW111981   4.127   4.706   2.062
 3545SOL    HW211982   4.018   4.585   2.055
 3546SOL     OW11983   4.106   4.424   2.342
 3546SOL    HW111984   4.151   4.334   2.339
 3546SOL    HW211985   4.012   4.413   2.375
 3547SOL     OW11986   4.338   3.846   1.979
 3547SOL    HW111987   4.436   3.824   1.986
 3547SOL    HW211988   4.307   3.829   1.886
 3548SOL     OW11989   4.505   3.988   3.611
 3548SOL    HW111990   4.572   3.927   3.654
 3548SOL    HW211991   4.432   4.007   3.676
 3549SOL     OW11992   4.646   4.227   2.761
 3549SOL    HW111993   4.621   4.218   2.665
 3549SOL    HW211994   4.694   4.145   2.792
 3550SOL     OW11995   4.263   3.788   2.374
 3550SOL    HW111996   4.182   3.789   2.432
 3550SOL    HW211997   4.266   3.871   2.319
 3551SOL     OW11998   5.158   4.912   1.903
 3551SOL    HW111999   5.190   4.836   1.960
 3551SOL    HW212000   5.066   4.939   1.933
 3552SOL     OW12001   4.021   3.759   2.033
 3552SOL    HW112002   4.070   3.843   2.012
 3552SOL    HW212003   4.083   3.694   2.078
 3553SOL     OW12004   4.659   3.960   2.342
 3553SOL    HW112005   4.611   4.001   2.264
 3553SOL    HW212006   4.758   3.958   2.323
 3554SOL     OW12007   4.800   4.407   3.326
 3554SOL    HW112008   4.720   4.346   3.329
 3554SOL    HW212009   4.881   4.354   3.302
 3555SOL     OW12010   4.756   4.273   1.878
 3555SOL    HW112011   4.715   4.355   1.839
 3555SOL    HW212012   4.820   4.299   1.951
 3556SOL     OW12013   4.285   3.946   3.009
 3556SOL    HW112014   4.323   3.862   3.046
 3556SOL    HW212015   4.197   3.965   3.053
 3557SOL     OW12016   4.741   3.763   2.615
 3557SOL    HW112017   4.669   3.768   2.546
 3557SOL    HW212018   4.717   3.694   2.684
 3558SOL     OW12019   4.251   3.980   2.190
 3558SOL    HW112020   4.278   3.921   2.115
 3558SOL    HW212021   4.251   4.075   2.159
 3559SOL     OW12022   4.639   3.813   3.264
 3559SOL    HW112023   4.664   3.793   3.169
 3559SOL    HW212024   4.711   3.869   3.306
 3560SOL     OW12025   4.704   4.840   3.581
 3560SOL    HW112026   4.605   4.846   3.591
 3560SOL    HW212027   4.727   4.760   3.525
 3561SOL     OW12028   4.134   4.537   3.113
 3561SOL    HW112029   4.220   4.549   3.163
 3561SOL    HW212030   4.092   4.450   3.140
 3562SOL     OW12031   4.998   4.110   3.124
 3562SOL    HW112032   5.019   4.184   3.188
 3562SOL    HW212033   4.909   4.127   3.081
 3563SOL     OW12034   4.091   4.824   2.363
 3563SOL    HW112035   4.084   4.907   2.307
 3563SOL    HW212036   4.095   4.744   2.303
 3564SOL     OW12037   4.290   4.261   2.727
 3564SOL    HW112038   4.302   4.327   2.653
 3564SOL    HW212039   4.336   4.295   2.810
 3565SOL     OW12040   4.976   5.072   2.250
 3565SOL    HW112041   5.026   5.149   2.290
 3565SOL    HW212042   4.881   5.074   2.282
 3566SOL     OW12043   4.126   4.475   3.460
 3566SOL    HW112044   4.194   4.530   3.413
 3566SOL    HW212045   4.166   4.387   3.487
 3567SOL     OW12046   4.737   3.829   3.632
 3567SOL    HW112047   4.743   3.914   3.580
 3567SOL    HW212048   4.769   3.753   3.575
 3568SOL     OW12049   4.228   3.774   3.602
 3568SOL    HW112050   4.186   3.717   3.532
 3568SOL    HW212051   4.162   3.843   3.634
 3569SOL     OW12052   5.084   4.586   2.907
 3569SOL    HW112053   5.009   4.586   2.841
 3569SOL    HW212054   5.121   4.494   2.916
 3570SOL     OW12055   4.933   4.249   2.137
 3570SOL    HW112056   4.946   4.165   2.191
 3570SOL    HW212057   4.904   4.323   2.197
 3571SOL     OW12058   4.031   3.937   3.093
 3571SOL    HW112059   4.008   3.974   3.183
 3571SOL    HW212060   4.001   3.842   3.087
 3572SOL     OW12061   4.456   4.358   2.926
 3572SOL    HW112062   4.515   4.332   2.850
 3572SOL    HW212063   4.428   4.454   2.915
 3573SOL     OW12064   4.031   3.787   2.480
 3573SOL    HW112065   4.020   3.881   2.513
 3573SOL    HW212066   4.026   3.724   2.557
 3574SOL     OW12067   5.346   4.091   2.236
 3574SOL    HW112068   5.348   4.015   2.300
 3574SOL    HW212069   5.298   4.168   2.276
 3575SOL     OW12070   4.747   4.490   2.828
 3575SOL    HW112071   4.762   4.511   2.924
 3575SOL    HW212072   4.717   4.395   2.819
 3576SOL     OW12073   5.027   4.562   1.904
 3576SOL    HW112074   5.061   4.469   1.919
 3576SOL    HW212075   5.045   4.589   1.809
 3577SOL     OW12076   4.043   4.534   2.811
 3577SOL    HW112077   4.136   4.570   2.816
 3577SOL    HW212078   4.037   4.449   2.863
 3578SOL     OW12079   4.063   4.233   2.868
 3578SOL    HW112080   4.011   4.150   2.851
 3578SOL    HW212081   4.140   4.238   2.804
 3579SOL     OW12082   4.862   4.104   3.540
 3579SOL    HW112083   4.817   4.167   3.604
 3579SOL    HW212084   4.955   4.135   3.523
 3580SOL     OW12085   4.884   3.931   3.339
 3580SOL    HW112086   4.884   3.995   3.416
 3580SOL    HW212087   4.912   3.979   3.256
 3581SOL     OW12088   3.732   5.050   2.062
 3581SOL    HW112089   3.639   5.071   2.031
 3581SOL    HW212090   3.742   4.951   2.075
 3582SOL     OW12091   4.726   4.520   3.100
 3582SOL    HW112092   4.767   4.488   3.186
 3582SOL    HW212093   4.630   4.493   3.097
 3583SOL     OW12094   4.395   4.188   3.131
 3583SOL    HW112095   4.361   4.099   3.101
 3583SOL    HW212096   4.421   4.242   3.051
 3584SOL     OW12097   4.197   4.224   2.053
 3584SOL    HW112098   4.258   4.304   2.057
 3584SOL    HW212099   4.102   4.255   2.060
 3585SOL     OW12100   5.071   4.783   3.096
 3585SOL    HW112101   5.095   4.720   3.022
 3585SOL    HW212102   4.981   4.823   3.078
 3586SOL     OW12103   3.807   4.982   2.884
 3586SOL    HW112104   3.802   4.981   2.984
 3586SOL    HW212105   3.724   4.941   2.846
 3587SOL     OW12106   5.004   4.651   2.534
 3587SOL    HW112107   5.064   4.570   2.536
 3587SOL    HW212108   5.044   4.720   2.474
 3588SOL     OW12109   4.554   4.997   3.284
 3588SOL    HW112110   4.549   5.030   3.379
 3588SOL    HW212111   4.468   5.016   3.238
 3589SOL     OW12112   3.987   4.050   2.582
 3589SOL    HW112113   3.908   4.101   2.548
 3589SOL    HW212114   3.978   4.035   2.680
 3590SOL     OW12115   4.918   5.336   1.893
 3590SOL    HW112116   4.924   5.243   1.930
 3590SOL    HW212117   4.859   5.336   1.813
 3591SOL     OW12118   4.546   4.726   3.234
 3591SOL    HW112119   4.586   4.725   3.142
 3591SOL    HW212120   4.556   4.818   3.274
 3592SOL     OW12121   4.738   3.960   2.833
 3592SOL    HW112122   4.730   3.924   2.740
 3592SOL    HW212123   4.736   3.884   2.898
 3593SOL     OW12124   4.396   3.927   3.351
 3593SOL    HW112125   4.486   3.911   3.311
 3593SOL    HW212126   4.404   3.932   3.450
 3594SOL     OW12127   5.164   4.580   3.260
 3594SOL    HW112128   5.107   4.632   3.197
 3594SOL    HW212129   5.260   4.592   3.236
 3595SOL     OW12130   4.337   4.566   3.293
 3595SOL    HW112131   4.393   4.647   3.276
 3595SOL    HW212132   4.396   4.486   3.296
 3596SOL     OW12133   4.440   4.289   3.570
 3596SOL    HW112134   4.459   4.354   3.644
 3596SOL    HW212135   4.500   4.209   3.579
 3597SOL     OW12136   5.174   4.944   3.495
 3597SOL    HW112137   5.165   4.934   3.594
 3597SOL    HW212138   5.270   4.937   3.469
 3598SOL     OW12139   4.949   4.049   2.311
 3598SOL    HW112140   5.014   3.975   2.300
 3598SOL    HW212141   4.969   4.099   2.395
 3599SOL     OW12142   4.583   4.680   2.723
 3599SOL    HW112143   4.637   4.611   2.771
 3599SOL    HW212144   4.551   4.749   2.789
 3600SOL     OW12145   4.807   4.708   1.949
 3600SOL    HW112146   4.784   4.761   1.867
 3600SOL    HW212147   4.888   4.652   1.930
 3601SOL     OW12148   3.803   4.964   2.515
 3601SOL    HW112149   3.802   4.917   2.603
 3601SOL    HW212150   3.885   4.936   2.464
 3602SOL     OW12151   4.152   4.148   2.382
 3602SOL    HW112152   4.182   4.076   2.320
 3602SOL    HW212153   4.113   4.108   2.465
 3603SOL     OW12154   4.041   4.271   3.142
 3603SOL    HW112155   4.079   4.212   3.214
 3603SOL    HW212156   4.081   4.245   3.054
 3604SOL     OW12157   4.725   3.758   3.016
 3604SOL    HW112158   4.662   3.686   2.985
 3604SOL    HW212159   4.818   3.722   3.016
 3605SOL     OW12160   5.076   3.776   2.030
 3605SOL    HW112161   5.111   3.735   1.946
 3605SOL    HW212162   4.986   3.738   2.050
 3606SOL     OW12163   3.763   4.801   2.162
 3606SOL    HW112164   3.862   4.790   2.153
 3606SOL    HW212165   3.723   4.715   2.194
 3607SOL     OW12166   3.949   3.999   4.720
 3607SOL    HW112167   3.984   3.982   4.812
 3607SOL    HW212168   3.861   3.954   4.708
 3608SOL     OW12169   3.743   4.092   4.371
 3608SOL    HW112170   3.661   4.135   4.410
 3608SOL    HW212171   3.715   4.019   4.308
 3609SOL     OW12172   4.293   4.999   4.889
 3609SOL    HW112173   4.200   4.992   4.852
 3609SOL    HW212174   4.304   5.088   4.933
 3610SOL     OW12175   4.492   4.868   4.747
 3610SOL    HW112176   4.414   4.885   4.807
 3610SOL    HW212177   4.526   4.955   4.711
 3611SOL     OW12178   4.409   4.736   4.389
 3611SOL    HW112179   4.478   4.720   4.459
 3611SOL    HW212180   4.336   4.793   4.427
 3612SOL     OW12181   4.059   5.159   4.785
 3612SOL    HW112182   3.981   5.128   4.732
 3612SOL    HW212183   4.117   5.217   4.728
 3613SOL     OW12184   3.964   4.815   4.610
 3613SOL    HW112185   3.978   4.731   4.662
 3613SOL    HW212186   3.909   4.879   4.665
 3614SOL     OW12187   4.330   4.688   3.847
 3614SOL    HW112188   4.337   4.772   3.793
 3614SOL    HW212189   4.376   4.701   3.935
 3615SOL     OW12190   3.846   4.367   4.287
 3615SOL    HW112191   3.801   4.279   4.304
 3615SOL    HW212192   3.845   4.421   4.371
 3616SOL     OW12193   4.533   3.728   4.226
 3616SOL    HW112194   4.573   3.819   4.217
 3616SOL    HW212195   4.433   3.736   4.232
 3617SOL     OW12196   3.921   4.700   4.988
 3617SOL    HW112197   4.010   4.655   4.974
 3617SOL    HW212198   3.848   4.635   4.969
 3618SOL     OW12199   4.322   4.453   3.994
 3618SOL    HW112200   4.346   4.522   3.926
 3618SOL    HW212201   4.244   4.486   4.048
 3619SOL     OW12202   5.005   4.069   4.668
 3619SOL    HW112203   4.919   4.019   4.655
 3619SOL    HW212204   5.067   4.015   4.724
 3620SOL     OW12205   4.715   4.134   4.966
 3620SOL    HW112206   4.638   4.168   5.020
 3620SOL    HW212207   4.681   4.083   4.887
 3621SOL     OW12208   4.765   4.425   4.153
 3621SOL    HW112209   4.791   4.421   4.249
 3621SOL    HW212210   4.680   4.374   4.139
 3622SOL     OW12211   3.800   4.535   4.513
 3622SOL    HW112212   3.899   4.523   4.522
 3622SOL    HW212213   3.776   4.630   4.534
 3623SOL     OW12214   4.589   4.072   3.919
 3623SOL    HW112215   4.648   4.135   3.870
 3623SOL    HW212216   4.608   3.978   3.890
 3624SOL     OW12217   4.274   3.920   4.609
 3624SOL    HW112218   4.269   3.915   4.709
 3624SOL    HW212219   4.276   4.016   4.580
 3625SOL     OW12220   4.045   4.667   3.966
 3625SOL    HW112221   4.127   4.706   3.924
 3625SOL    HW212222   4.018   4.585   3.917
 3626SOL     OW12223   4.106   4.424   4.204
 3626SOL    HW112224   4.151   4.334   4.201
 3626SOL    HW212225   4.012   4.413   4.237
 3627SOL     OW12226   4.338   3.846   3.841
 3627SOL    HW112227   4.436   3.824   3.848
 3627SOL    HW212228   4.307   3.829   3.748
 3628SOL     OW12229   4.527   5.126   4.648
 3628SOL    HW112230   4.617   5.140   4.606
 3628SOL    HW212231   4.456   5.128   4.577
 3629SOL     OW12232   4.646   4.227   4.623
 3629SOL    HW112233   4.621   4.218   4.527
 3629SOL    HW212234   4.694   4.145   4.654
 3630SOL     OW12235   4.263   3.788   4.236
 3630SOL    HW112236   4.182   3.789   4.294
 3630SOL    HW212237   4.266   3.871   4.181
 3631SOL     OW12238   5.158   4.912   3.765
 3631SOL    HW112239   5.190   4.836   3.822
 3631SOL    HW212240   5.066   4.939   3.795
 3632SOL     OW12241   4.021   3.759   3.895
 3632SOL    HW112242   4.070   3.843   3.874
 3632SOL    HW212243   4.083   3.694   3.940
 3633SOL     OW12244   4.659   3.960   4.204
 3633SOL    HW112245   4.611   4.001   4.126
 3633SOL    HW212246   4.758   3.958   4.185
 3634SOL     OW12247   4.951   5.294   4.517
 3634SOL    HW112248   4.972   5.368   4.452
 3634SOL    HW212249   5.019   5.294   4.590
 3635SOL     OW12250   4.183   4.876   4.465
 3635SOL    HW112251   4.112   4.849   4.530
 3635SOL    HW212252   4.157   4.848   4.372
 3636SOL     OW12253   4.756   4.273   3.740
 3636SOL    HW112254   4.715   4.355   3.701
 3636SOL    HW212255   4.820   4.299   3.813
 3637SOL     OW12256   4.285   3.946   4.871
 3637SOL    HW112257   4.323   3.862   4.908
 3637SOL    HW212258   4.197   3.965   4.915
 3638SOL     OW12259   4.590   4.178   4.366
 3638SOL    HW112260   4.558   4.250   4.304
 3638SOL    HW212261   4.614   4.097   4.313
 3639SOL     OW12262   4.741   3.763   4.477
 3639SOL    HW112263   4.669   3.768   4.408
 3639SOL    HW212264   4.717   3.694   4.546
 3640SOL     OW12265   4.251   3.980   4.052
 3640SOL    HW112266   4.278   3.921   3.977
 3640SOL    HW212267   4.251   4.075   4.021
 3641SOL     OW12268   4.429   4.774   4.092
 3641SOL    HW112269   4.415   4.781   4.191
 3641SOL    HW212270   4.513   4.723   4.074
 3642SOL     OW12271   4.134   4.537   4.975
 3642SOL    HW112272   4.220   4.549   5.025
 3642SOL    HW212273   4.092   4.450   5.002
 3643SOL     OW12274   4.091   4.824   4.225
 3643SOL    HW112275   4.084   4.907   4.169
 3643SOL    HW212276   4.095   4.744   4.165
 3644SOL     OW12277   4.290   4.261   4.589
 3644SOL    HW112278   4.302   4.327   4.515
 3644SOL    HW212279   4.336   4.295   4.672
 3645SOL     OW12280   4.976   5.072   4.112
 3645SOL    HW112281   5.026   5.149   4.152
 3645SOL    HW212282   4.881   5.074   4.144
 3646SOL     OW12283   4.297   4.594   4.753
 3646SOL    HW112284   4.341   4.683   4.744
 3646SOL    HW212285   4.234   4.594   4.830
 3647SOL     OW12286   5.084   4.586   4.769
 3647SOL    HW112287   5.009   4.586   4.703
 3647SOL    HW212288   5.121   4.494   4.778
 3648SOL     OW12289   4.933   4.249   3.999
 3648SOL    HW112290   4.946   4.165   4.053
 3648SOL    HW212291   4.904   4.323   4.059
 3649SOL     OW12292   4.031   3.937   4.955
 3649SOL    HW112293   4.008   3.974   5.045
 3649SOL    HW212294   4.001   3.842   4.949
 3650SOL     OW12295   4.456   4.358   4.788
 3650SOL    HW112296   4.515   4.332   4.712
 3650SOL    HW212297   4.428   4.454   4.777
 3651SOL     OW12298   4.031   3.787   4.342
 3651SOL    HW112299   4.020   3.881   4.375
 3651SOL    HW212300   4.026   3.724   4.419
 3652SOL     OW12301   5.346   4.091   4.098
 3652SOL    HW112302   5.348   4.015   4.162
 3652SOL    HW212303   5.298   4.168   4.138
 3653SOL     OW12304   4.747   4.490   4.690
 3653SOL    HW112305   4.762   4.511   4.786
 3653SOL    HW212306   4.717   4.395   4.681
 3654SOL     OW12307   4.043   4.534   4.673
 3654SOL    HW112308   4.136   4.570   4.678
 3654SOL    HW212309   4.037   4.449   4.725
 3655SOL     OW12310   4.063   4.233   4.730
 3655SOL    HW112311   4.011   4.150   4.713
 3655SOL    HW212312   4.140   4.238   4.666
 3656SOL     OW12313   4.884   3.931   5.201
 3656SOL    HW112314   4.884   3.995   5.278
 3656SOL    HW212315   4.912   3.979   5.118
 3657SOL     OW12316   3.732   5.050   3.924
 3657SOL    HW112317   3.639   5.071   3.893
 3657SOL    HW212318   3.742   4.951   3.937
 3658SOL     OW12319   4.726   4.520   4.962
 3658SOL    HW112320   4.767   4.488   5.048
 3658SOL    HW212321   4.630   4.493   4.959
 3659SOL     OW12322   3.764   4.268   4.838
 3659SOL    HW112323   3.849   4.235   4.797
 3659SOL    HW212324   3.777   4.283   4.936
 3660SOL     OW12325   4.539   4.296   4.049
 3660SOL    HW112326   4.546   4.207   4.003
 3660SOL    HW212327   4.445   4.330   4.041
 3661SOL     OW12328   4.395   4.188   4.993
 3661SOL    HW112329   4.361   4.099   4.963
 3661SOL    HW212330   4.421   4.242   4.913
 3662SOL     OW12331   4.197   4.224   3.915
 3662SOL    HW112332   4.258   4.304   3.919
 3662SOL    HW212333   4.102   4.255   3.922
 3663SOL     OW12334   5.071   4.783   4.958
 3663SOL    HW112335   5.095   4.720   4.884
 3663SOL    HW212336   4.981   4.823   4.940
 3664SOL     OW12337   3.807   4.982   4.746
 3664SOL    HW112338   3.802   4.981   4.846
 3664SOL    HW212339   3.724   4.941   4.708
 3665SOL     OW12340   3.987   4.050   4.444
 3665SOL    HW112341   3.908   4.101   4.410
 3665SOL    HW212342   3.978   4.035   4.542
 3666SOL     OW12343   4.918   5.336   3.755
 3666SOL    HW112344   4.924   5.243   3.792
 3666SOL    HW212345   4.859   5.336   3.675
 3667SOL     OW12346   4.640   4.634   4.015
 3667SOL    HW112347   4.703   4.672   3.947
 3667SOL    HW212348   4.680   4.551   4.054
 3668SOL     OW12349   4.738   3.960   4.695
 3668SOL    HW112350   4.730   3.924   4.602
 3668SOL    HW212351   4.736   3.884   4.760
 3669SOL     OW12352   3.796   3.890   4.042
 3669SOL    HW112353   3.779   3.973   3.988
 3669SOL    HW212354   3.886   3.853   4.020
 3670SOL     OW12355   4.949   4.049   4.173
 3670SOL    HW112356   5.014   3.975   4.162
 3670SOL    HW212357   4.969   4.099   4.257
 3671SOL     OW12358   4.318   4.469   4.376
 3671SOL    HW112359   4.368   4.554   4.357
 3671SOL    HW212360   4.230   4.471   4.328
 3672SOL     OW12361   4.583   4.680   4.585
 3672SOL    HW112362   4.637   4.611   4.633
 3672SOL    HW212363   4.551   4.749   4.651
 3673SOL     OW12364   3.803   4.964   4.377
 3673SOL    HW112365   3.802   4.917   4.465
 3673SOL    HW212366   3.885   4.936   4.326
 3674SOL     OW12367   4.725   3.758   4.878
 3674SOL    HW112368   4.662   3.686   4.847
 3674SOL    HW212369   4.818   3.722   4.878
 3675SOL     OW12370   4.494   5.054   4.025
 3675SOL    HW112371   4.448   4.967   4.042
 3675SOL    HW212372   4.585   5.051   4.066
 3676SOL     OW12373   5.076   3.776   3.892
 3676SOL    HW112374   5.111   3.735   3.808
 3676SOL    HW212375   4.986   3.738   3.912
 3677SOL     OW12376   3.763   4.801   4.024
 3677SOL    HW112377   3.862   4.790   4.015
 3677SOL    HW212378   3.723   4.715   4.056
   5.08970   5.08970   5.08970
